# Region type : patch inlet
# Faces  :     292
# Area   :     1.5721138e-05
# Time         	average(U)	average(p)	average(T)	average(rho)
0              	(0.0000000e+00 0.0000000e+00 0.0000000e+00)	1.1000000e+05	2.9400000e+02	1.3004948e+00
4.01965e-07    	(1.6579731e+01 -1.4059855e-01 -1.4257196e+01)	1.0960174e+05	2.9369256e+02	1.2971413e+00
7.27512e-07    	(1.7706838e+01 -8.1791677e-02 -1.5154327e+01)	1.0958347e+05	2.9367646e+02	1.2969973e+00
1.05663e-06    	(1.7513412e+01 -6.3150828e-02 -1.4928049e+01)	1.0960221e+05	2.9368856e+02	1.2971657e+00
1.38681e-06    	(1.7152392e+01 -6.9429850e-02 -1.4613784e+01)	1.0962245e+05	2.9370178e+02	1.2973468e+00
1.71576e-06    	(1.6621505e+01 -6.0315209e-02 -1.4170581e+01)	1.0964820e+05	2.9371923e+02	1.2975745e+00
2.04805e-06    	(1.6227099e+01 -5.0979649e-02 -1.3829667e+01)	1.0966744e+05	2.9373168e+02	1.2977472e+00
2.37928e-06    	(1.5944595e+01 -2.7000904e-02 -1.3561485e+01)	1.0968221e+05	2.9374070e+02	1.2978820e+00
2.71099e-06    	(1.5761196e+01 -2.2525755e-02 -1.3381312e+01)	1.0969287e+05	2.9374658e+02	1.2979823e+00
3.04407e-06    	(1.5686326e+01 -2.9782143e-02 -1.3308213e+01)	1.0969882e+05	2.9374884e+02	1.2980426e+00
3.37601e-06    	(1.5547947e+01 -1.3730353e-02 -1.3197576e+01)	1.0970742e+05	2.9375315e+02	1.2981254e+00
3.70902e-06    	(1.5471015e+01 -1.7291301e-02 -1.3146234e+01)	1.0971330e+05	2.9375536e+02	1.2981852e+00
4.04262e-06    	(1.5444640e+01 -2.3364595e-02 -1.3140498e+01)	1.0971688e+05	2.9375580e+02	1.2982255e+00
4.375e-06      	(1.5415628e+01 -1.0024155e-02 -1.3129995e+01)	1.0972074e+05	2.9375647e+02	1.2982682e+00
4.70918e-06    	(1.5469773e+01 -1.9265925e-02 -1.3177770e+01)	1.0972146e+05	2.9375473e+02	1.2982845e+00
5.0423e-06     	(1.5512872e+01 -1.7064690e-02 -1.3212287e+01)	1.0972294e+05	2.9375358e+02	1.2983071e+00
5.37532e-06    	(1.5594141e+01 -1.5700838e-02 -1.3278742e+01)	1.0972283e+05	2.9375121e+02	1.2983163e+00
5.70948e-06    	(1.5750877e+01 -2.6691359e-02 -1.3409989e+01)	1.0971946e+05	2.9374634e+02	1.2982979e+00
6.04158e-06    	(1.5879221e+01 -1.1742143e-02 -1.3522321e+01)	1.0971745e+05	2.9374252e+02	1.2982910e+00
6.37547e-06    	(1.6122208e+01 -2.3414518e-02 -1.3730137e+01)	1.0971045e+05	2.9373487e+02	1.2982419e+00
6.7081e-06     	(1.6395764e+01 -2.5111922e-02 -1.3965428e+01)	1.0970189e+05	2.9372604e+02	1.2981797e+00
7.04004e-06    	(1.6712198e+01 -1.9055588e-02 -1.4236235e+01)	1.0969110e+05	2.9371551e+02	1.2980986e+00
7.37319e-06    	(1.7139504e+01 -3.1715009e-02 -1.4596626e+01)	1.0967484e+05	2.9370077e+02	1.2979712e+00
7.70365e-06    	(1.7548019e+01 -1.7537080e-02 -1.4943772e+01)	1.0965900e+05	2.9368639e+02	1.2978473e+00
8.03561e-06    	(1.8061475e+01 -2.3867383e-02 -1.5377029e+01)	1.0963756e+05	2.9366769e+02	1.2976760e+00
8.36612e-06    	(1.8586124e+01 -2.1846200e-02 -1.5821487e+01)	1.0961467e+05	2.9364790e+02	1.2974925e+00
8.69569e-06    	(1.9121480e+01 -1.4402323e-02 -1.6276454e+01)	1.0959037e+05	2.9362703e+02	1.2972970e+00
9.02641e-06    	(1.9729378e+01 -2.7711757e-02 -1.6790826e+01)	1.0956147e+05	2.9360262e+02	1.2970626e+00
9.35429e-06    	(2.0271310e+01 -1.6474110e-02 -1.7253461e+01)	1.0953513e+05	2.9358019e+02	1.2968497e+00
9.68346e-06    	(2.0868682e+01 -2.7425450e-02 -1.7761299e+01)	1.0950495e+05	2.9355481e+02	1.2966044e+00
1.00115e-05    	(2.1442746e+01 -3.4572047e-02 -1.8250720e+01)	1.0947492e+05	2.9352954e+02	1.2963603e+00
1.03379e-05    	(2.1971804e+01 -3.1742985e-02 -1.8703938e+01)	1.0944644e+05	2.9350546e+02	1.2961291e+00
1.06658e-05    	(2.2535926e+01 -4.9056904e-02 -1.9183445e+01)	1.0941520e+05	2.9347925e+02	1.2958747e+00
1.0991e-05     	(2.3018047e+01 -4.5818740e-02 -1.9595125e+01)	1.0938800e+05	2.9345616e+02	1.2956544e+00
1.13169e-05    	(2.3511379e+01 -5.5591151e-02 -2.0013619e+01)	1.0935952e+05	2.9343207e+02	1.2954232e+00
1.16423e-05    	(2.3974638e+01 -6.4684664e-02 -2.0406084e+01)	1.0933225e+05	2.9340890e+02	1.2952021e+00
1.19661e-05    	(2.4374958e+01 -6.1568635e-02 -2.0746732e+01)	1.0930845e+05	2.9338842e+02	1.2950104e+00
1.22911e-05    	(2.4797411e+01 -7.6364908e-02 -2.1103824e+01)	1.0928297e+05	2.9336662e+02	1.2948045e+00
1.26142e-05    	(2.5141382e+01 -7.4071188e-02 -2.1397140e+01)	1.0926225e+05	2.9334849e+02	1.2946388e+00
1.29377e-05    	(2.5486803e+01 -8.1728603e-02 -2.1690739e+01)	1.0924128e+05	2.9333017e+02	1.2944711e+00
1.32608e-05    	(2.5798616e+01 -8.6212419e-02 -2.1956766e+01)	1.0922241e+05	2.9331346e+02	1.2943210e+00
1.3583e-05     	(2.6070299e+01 -8.4944506e-02 -2.2189876e+01)	1.0920618e+05	2.9329878e+02	1.2941933e+00
1.3906e-05     	(2.6348444e+01 -9.3352585e-02 -2.2427557e+01)	1.0918955e+05	2.9328380e+02	1.2940622e+00
1.42279e-05    	(2.6580414e+01 -9.0920376e-02 -2.2627261e+01)	1.0917608e+05	2.9327125e+02	1.2939579e+00
1.45503e-05    	(2.6821274e+01 -9.6007907e-02 -2.2832713e+01)	1.0916207e+05	2.9325827e+02	1.2938489e+00
1.48722e-05    	(2.7041306e+01 -9.6901153e-02 -2.3020400e+01)	1.0914950e+05	2.9324641e+02	1.2937522e+00
1.5194e-05     	(2.7258337e+01 -9.8611116e-02 -2.3204940e+01)	1.0913711e+05	2.9323469e+02	1.2936570e+00
1.55155e-05    	(2.7472304e+01 -9.9449946e-02 -2.3386646e+01)	1.0912487e+05	2.9322308e+02	1.2935630e+00
1.58368e-05    	(2.7686314e+01 -9.9044661e-02 -2.3568445e+01)	1.0911249e+05	2.9321137e+02	1.2934679e+00
1.61578e-05    	(2.7903514e+01 -9.7717112e-02 -2.3753225e+01)	1.0909971e+05	2.9319936e+02	1.2933693e+00
1.64787e-05    	(2.8124896e+01 -9.5404487e-02 -2.3941837e+01)	1.0908643e+05	2.9318695e+02	1.2932665e+00
1.67993e-05    	(2.8352091e+01 -9.2408741e-02 -2.4135670e+01)	1.0907249e+05	2.9317405e+02	1.2931581e+00
1.71197e-05    	(2.8585943e+01 -8.8948952e-02 -2.4335297e+01)	1.0905783e+05	2.9316058e+02	1.2930436e+00
1.74399e-05    	(2.8826416e+01 -8.5429512e-02 -2.4540725e+01)	1.0904242e+05	2.9314654e+02	1.2929227e+00
1.77599e-05    	(2.9072398e+01 -8.1918440e-02 -2.4750944e+01)	1.0902636e+05	2.9313200e+02	1.2927962e+00
1.80798e-05    	(2.9322439e+01 -7.8449216e-02 -2.4964584e+01)	1.0900974e+05	2.9311703e+02	1.2926651e+00
1.83994e-05    	(2.9574715e+01 -7.5022304e-02 -2.5179954e+01)	1.0899274e+05	2.9310176e+02	1.2925306e+00
1.87189e-05    	(2.9827413e+01 -7.1944977e-02 -2.5395453e+01)	1.0897550e+05	2.9308631e+02	1.2923941e+00
1.90381e-05    	(3.0078082e+01 -6.9306503e-02 -2.5609031e+01)	1.0895822e+05	2.9307083e+02	1.2922573e+00
1.93572e-05    	(3.0325128e+01 -6.7095048e-02 -2.5819339e+01)	1.0894107e+05	2.9305545e+02	1.2921216e+00
1.9676e-05     	(3.0567575e+01 -6.5254877e-02 -2.6025666e+01)	1.0892415e+05	2.9304024e+02	1.2919877e+00
1.99946e-05    	(3.0804979e+01 -6.3831410e-02 -2.6227672e+01)	1.0890751e+05	2.9302525e+02	1.2918563e+00
2.0313e-05     	(3.1037306e+01 -6.2743172e-02 -2.6425348e+01)	1.0889119e+05	2.9301050e+02	1.2917275e+00
2.06311e-05    	(3.1265294e+01 -6.2010510e-02 -2.6619312e+01)	1.0887514e+05	2.9299597e+02	1.2916010e+00
2.09489e-05    	(3.1489527e+01 -6.1738888e-02 -2.6810050e+01)	1.0885935e+05	2.9298163e+02	1.2914767e+00
2.12665e-05    	(3.1711444e+01 -6.1775680e-02 -2.6998962e+01)	1.0884368e+05	2.9296740e+02	1.2913534e+00
2.15838e-05    	(3.1932144e+01 -6.2113275e-02 -2.7187054e+01)	1.0882805e+05	2.9295319e+02	1.2912304e+00
2.19008e-05    	(3.2153114e+01 -6.2685307e-02 -2.7375498e+01)	1.0881233e+05	2.9293892e+02	1.2911066e+00
2.22176e-05    	(3.2375759e+01 -6.3376740e-02 -2.7565490e+01)	1.0879639e+05	2.9292448e+02	1.2909811e+00
2.2534e-05     	(3.2601095e+01 -6.4116830e-02 -2.7757981e+01)	1.0878014e+05	2.9290980e+02	1.2908528e+00
2.28501e-05    	(3.2829827e+01 -6.4864615e-02 -2.7953553e+01)	1.0876348e+05	2.9289481e+02	1.2907210e+00
2.31659e-05    	(3.3062048e+01 -6.5697301e-02 -2.8152149e+01)	1.0874639e+05	2.9287949e+02	1.2905856e+00
2.34813e-05    	(3.3298544e+01 -6.6652938e-02 -2.8354276e+01)	1.0872880e+05	2.9286378e+02	1.2904459e+00
2.37964e-05    	(3.3539561e+01 -6.7743822e-02 -2.8560148e+01)	1.0871065e+05	2.9284764e+02	1.2903015e+00
2.41112e-05    	(3.3784908e+01 -6.8899749e-02 -2.8769532e+01)	1.0869194e+05	2.9283107e+02	1.2901522e+00
2.44256e-05    	(3.4033852e+01 -7.0061480e-02 -2.8981723e+01)	1.0867272e+05	2.9281411e+02	1.2899987e+00
2.47398e-05    	(3.4285370e+01 -7.1176005e-02 -2.9195876e+01)	1.0865306e+05	2.9279681e+02	1.2898414e+00
2.50535e-05    	(3.4538404e+01 -7.2229427e-02 -2.9411205e+01)	1.0863306e+05	2.9277925e+02	1.2896811e+00
2.5367e-05     	(3.4791882e+01 -7.3178090e-02 -2.9626887e+01)	1.0861279e+05	2.9276148e+02	1.2895185e+00
2.56801e-05    	(3.5044658e+01 -7.4084825e-02 -2.9841893e+01)	1.0859237e+05	2.9274359e+02	1.2893547e+00
2.5993e-05     	(3.5295548e+01 -7.4945926e-02 -3.0055196e+01)	1.0857192e+05	2.9272568e+02	1.2891905e+00
2.63055e-05    	(3.5543740e+01 -7.5732592e-02 -3.0266116e+01)	1.0855152e+05	2.9270780e+02	1.2890268e+00
2.66177e-05    	(3.5788127e+01 -7.6399609e-02 -3.0473739e+01)	1.0853127e+05	2.9269005e+02	1.2888644e+00
2.69297e-05    	(3.6027628e+01 -7.6996913e-02 -3.0677108e+01)	1.0851131e+05	2.9267251e+02	1.2887043e+00
2.72414e-05    	(3.6261374e+01 -7.7528054e-02 -3.0875483e+01)	1.0849174e+05	2.9265527e+02	1.2885475e+00
2.75529e-05    	(3.6488456e+01 -7.8066214e-02 -3.1068205e+01)	1.0847265e+05	2.9263840e+02	1.2883948e+00
2.78641e-05    	(3.6708271e+01 -7.8511211e-02 -3.1254863e+01)	1.0845412e+05	2.9262197e+02	1.2882468e+00
2.81751e-05    	(3.6920432e+01 -7.8936440e-02 -3.1435151e+01)	1.0843621e+05	2.9260601e+02	1.2881041e+00
2.84858e-05    	(3.7124574e+01 -7.9336084e-02 -3.1608751e+01)	1.0841898e+05	2.9259059e+02	1.2879671e+00
2.87963e-05    	(3.7320726e+01 -7.9710524e-02 -3.1775691e+01)	1.0840245e+05	2.9257570e+02	1.2878361e+00
2.91067e-05    	(3.7508895e+01 -8.0067771e-02 -3.1935916e+01)	1.0838664e+05	2.9256136e+02	1.2877111e+00
2.94168e-05    	(3.7689224e+01 -8.0475008e-02 -3.2089491e+01)	1.0837156e+05	2.9254760e+02	1.2875924e+00
2.97267e-05    	(3.7862264e+01 -8.0839921e-02 -3.2236848e+01)	1.0835717e+05	2.9253436e+02	1.2874794e+00
3.00365e-05    	(3.8029103e+01 -8.1174248e-02 -3.2378838e+01)	1.0834336e+05	2.9252158e+02	1.2873715e+00
3.0346e-05     	(3.8190383e+01 -8.1501019e-02 -3.2516074e+01)	1.0833008e+05	2.9250920e+02	1.2872679e+00
3.06554e-05    	(3.8346885e+01 -8.1837650e-02 -3.2649322e+01)	1.0831723e+05	2.9249717e+02	1.2871681e+00
3.09646e-05    	(3.8499600e+01 -8.2182305e-02 -3.2779441e+01)	1.0830472e+05	2.9248539e+02	1.2870712e+00
3.12736e-05    	(3.8649368e+01 -8.2573992e-02 -3.2907092e+01)	1.0829247e+05	2.9247381e+02	1.2869764e+00
3.15825e-05    	(3.8796799e+01 -8.3001314e-02 -3.3032773e+01)	1.0828040e+05	2.9246239e+02	1.2868832e+00
3.18911e-05    	(3.8942248e+01 -8.3444496e-02 -3.3156778e+01)	1.0826849e+05	2.9245107e+02	1.2867912e+00
3.21996e-05    	(3.9085920e+01 -8.3891395e-02 -3.3279264e+01)	1.0825670e+05	2.9243986e+02	1.2867004e+00
3.2508e-05     	(3.9227729e+01 -8.4349668e-02 -3.3400157e+01)	1.0824504e+05	2.9242874e+02	1.2866106e+00
3.28161e-05    	(3.9367281e+01 -8.4813307e-02 -3.3519188e+01)	1.0823355e+05	2.9241776e+02	1.2865221e+00
3.31241e-05    	(3.9504209e+01 -8.5359071e-02 -3.3636024e+01)	1.0822225e+05	2.9240692e+02	1.2864354e+00
3.34319e-05    	(3.9637446e+01 -8.5967752e-02 -3.3749747e+01)	1.0821125e+05	2.9239632e+02	1.2863512e+00
3.37396e-05    	(3.9765449e+01 -8.6676401e-02 -3.3859068e+01)	1.0820072e+05	2.9238608e+02	1.2862709e+00
3.40471e-05    	(3.9887073e+01 -8.7456512e-02 -3.3962991e+01)	1.0819077e+05	2.9237629e+02	1.2861956e+00
3.43545e-05    	(4.0000725e+01 -8.8310133e-02 -3.4060203e+01)	1.0818159e+05	2.9236709e+02	1.2861268e+00
3.46617e-05    	(4.0104910e+01 -8.9238610e-02 -3.4149442e+01)	1.0817333e+05	2.9235860e+02	1.2860658e+00
3.49689e-05    	(4.0197928e+01 -9.0153866e-02 -3.4229222e+01)	1.0816619e+05	2.9235098e+02	1.2860143e+00
3.52759e-05    	(4.0277965e+01 -9.1045165e-02 -3.4297963e+01)	1.0816037e+05	2.9234438e+02	1.2859740e+00
3.55828e-05    	(4.0343402e+01 -9.1907334e-02 -3.4354271e+01)	1.0815604e+05	2.9233894e+02	1.2859464e+00
3.58896e-05    	(4.0393248e+01 -9.2745909e-02 -3.4397212e+01)	1.0815335e+05	2.9233476e+02	1.2859327e+00
3.61963e-05    	(4.0426773e+01 -9.3582985e-02 -3.4426177e+01)	1.0815236e+05	2.9233190e+02	1.2859335e+00
3.6503e-05     	(4.0443160e+01 -9.4431212e-02 -3.4440544e+01)	1.0815319e+05	2.9233045e+02	1.2859497e+00
3.68097e-05    	(4.0442033e+01 -9.5273797e-02 -3.4440051e+01)	1.0815589e+05	2.9233044e+02	1.2859818e+00
3.71163e-05    	(4.0424018e+01 -9.6088238e-02 -3.4425225e+01)	1.0816040e+05	2.9233183e+02	1.2860293e+00
3.7423e-05     	(4.0389954e+01 -9.6729822e-02 -3.4396714e+01)	1.0816663e+05	2.9233456e+02	1.2860914e+00
3.77297e-05    	(4.0340891e+01 -9.7119959e-02 -3.4355314e+01)	1.0817450e+05	2.9233855e+02	1.2861674e+00
3.80364e-05    	(4.0278305e+01 -9.7312553e-02 -3.4302322e+01)	1.0818383e+05	2.9234368e+02	1.2862560e+00
3.83432e-05    	(4.0204307e+01 -9.7323958e-02 -3.4239541e+01)	1.0819442e+05	2.9234977e+02	1.2863551e+00
3.865e-05      	(4.0121371e+01 -9.7144030e-02 -3.4169055e+01)	1.0820598e+05	2.9235662e+02	1.2864626e+00
3.89569e-05    	(4.0031616e+01 -9.6720094e-02 -3.4092705e+01)	1.0821830e+05	2.9236405e+02	1.2865764e+00
3.92639e-05    	(3.9937120e+01 -9.6030745e-02 -3.4012297e+01)	1.0823113e+05	2.9237188e+02	1.2866947e+00
3.9571e-05     	(3.9839962e+01 -9.5070839e-02 -3.3929615e+01)	1.0824426e+05	2.9237994e+02	1.2868154e+00
3.98783e-05    	(3.9742393e+01 -9.3920452e-02 -3.3846578e+01)	1.0825743e+05	2.9238803e+02	1.2869366e+00
4.01856e-05    	(3.9646535e+01 -9.2634840e-02 -3.3764984e+01)	1.0827042e+05	2.9239598e+02	1.2870562e+00
4.04931e-05    	(3.9554076e+01 -9.1282679e-02 -3.3686285e+01)	1.0828305e+05	2.9240365e+02	1.2871728e+00
4.08006e-05    	(3.9466510e+01 -8.9907449e-02 -3.3611745e+01)	1.0829516e+05	2.9241091e+02	1.2872849e+00
4.11083e-05    	(3.9384966e+01 -8.8531014e-02 -3.3542241e+01)	1.0830663e+05	2.9241768e+02	1.2873915e+00
4.1416e-05     	(3.9310430e+01 -8.7198184e-02 -3.3478608e+01)	1.0831736e+05	2.9242387e+02	1.2874919e+00
4.17238e-05    	(3.9243642e+01 -8.5917188e-02 -3.3421513e+01)	1.0832727e+05	2.9242943e+02	1.2875853e+00
4.20317e-05    	(3.9185156e+01 -8.4767057e-02 -3.3371410e+01)	1.0833630e+05	2.9243432e+02	1.2876713e+00
4.23396e-05    	(3.9135082e+01 -8.3731277e-02 -3.3328394e+01)	1.0834445e+05	2.9243852e+02	1.2877498e+00
4.26476e-05    	(3.9093292e+01 -8.2802955e-02 -3.3292373e+01)	1.0835173e+05	2.9244204e+02	1.2878209e+00
4.29556e-05    	(3.9059386e+01 -8.1983737e-02 -3.3263039e+01)	1.0835818e+05	2.9244493e+02	1.2878850e+00
4.32637e-05    	(3.9032851e+01 -8.1311559e-02 -3.3239979e+01)	1.0836386e+05	2.9244722e+02	1.2879424e+00
4.35718e-05    	(3.9012938e+01 -8.0759832e-02 -3.3222540e+01)	1.0836884e+05	2.9244897e+02	1.2879940e+00
4.38799e-05    	(3.8998783e+01 -8.0293871e-02 -3.3210012e+01)	1.0837322e+05	2.9245025e+02	1.2880404e+00
4.41879e-05    	(3.8989630e+01 -7.9916278e-02 -3.3201783e+01)	1.0837708e+05	2.9245112e+02	1.2880824e+00
4.4496e-05     	(3.8984782e+01 -7.9640040e-02 -3.3197287e+01)	1.0838048e+05	2.9245165e+02	1.2881206e+00
4.48041e-05    	(3.8983628e+01 -7.9474918e-02 -3.3196007e+01)	1.0838349e+05	2.9245188e+02	1.2881554e+00
4.51121e-05    	(3.8985691e+01 -7.9395899e-02 -3.3197538e+01)	1.0838617e+05	2.9245185e+02	1.2881874e+00
4.54201e-05    	(3.8990578e+01 -7.9365151e-02 -3.3201561e+01)	1.0838856e+05	2.9245160e+02	1.2882170e+00
4.57281e-05    	(3.8998002e+01 -7.9362841e-02 -3.3207836e+01)	1.0839069e+05	2.9245115e+02	1.2882443e+00
4.60361e-05    	(3.9007798e+01 -7.9390826e-02 -3.3216208e+01)	1.0839258e+05	2.9245050e+02	1.2882695e+00
4.6344e-05     	(3.9019920e+01 -7.9457468e-02 -3.3226614e+01)	1.0839423e+05	2.9244968e+02	1.2882928e+00
4.66519e-05    	(3.9034405e+01 -7.9558850e-02 -3.3239063e+01)	1.0839564e+05	2.9244867e+02	1.2883140e+00
4.69597e-05    	(3.9051438e+01 -7.9703009e-02 -3.3253722e+01)	1.0839679e+05	2.9244747e+02	1.2883331e+00
4.72674e-05    	(3.9071261e+01 -7.9901799e-02 -3.3270829e+01)	1.0839766e+05	2.9244605e+02	1.2883497e+00
4.75751e-05    	(3.9094092e+01 -8.0150180e-02 -3.3290564e+01)	1.0839822e+05	2.9244438e+02	1.2883637e+00
4.78828e-05    	(3.9120128e+01 -8.0420054e-02 -3.3313072e+01)	1.0839845e+05	2.9244246e+02	1.2883748e+00
4.81903e-05    	(3.9149572e+01 -8.0698428e-02 -3.3338515e+01)	1.0839832e+05	2.9244027e+02	1.2883830e+00
4.84978e-05    	(3.9182740e+01 -8.0982204e-02 -3.3367140e+01)	1.0839779e+05	2.9243777e+02	1.2883878e+00
4.88053e-05    	(3.9219898e+01 -8.1273553e-02 -3.3399170e+01)	1.0839685e+05	2.9243495e+02	1.2883889e+00
4.91126e-05    	(3.9261250e+01 -8.1603626e-02 -3.3434734e+01)	1.0839546e+05	2.9243179e+02	1.2883864e+00
4.94199e-05    	(3.9307007e+01 -8.1977932e-02 -3.3473977e+01)	1.0839360e+05	2.9242826e+02	1.2883798e+00
4.9727e-05     	(3.9357190e+01 -8.2368946e-02 -3.3516925e+01)	1.0839126e+05	2.9242436e+02	1.2883691e+00
5.00341e-05    	(3.9411610e+01 -8.2747305e-02 -3.3563463e+01)	1.0838847e+05	2.9242011e+02	1.2883546e+00
5.03411e-05    	(3.9469996e+01 -8.3120377e-02 -3.3613383e+01)	1.0838524e+05	2.9241553e+02	1.2883364e+00
5.0648e-05     	(3.9532112e+01 -8.3483205e-02 -3.3666461e+01)	1.0838159e+05	2.9241063e+02	1.2883146e+00
5.09548e-05    	(3.9597658e+01 -8.3834158e-02 -3.3722409e+01)	1.0837757e+05	2.9240543e+02	1.2882896e+00
5.12615e-05    	(3.9666246e+01 -8.4175004e-02 -3.3780870e+01)	1.0837321e+05	2.9239997e+02	1.2882617e+00
5.15681e-05    	(3.9737462e+01 -8.4505237e-02 -3.3841476e+01)	1.0836855e+05	2.9239429e+02	1.2882313e+00
5.18746e-05    	(3.9810870e+01 -8.4826280e-02 -3.3903837e+01)	1.0836364e+05	2.9238841e+02	1.2881988e+00
5.2181e-05     	(3.9885947e+01 -8.5134122e-02 -3.3967488e+01)	1.0835854e+05	2.9238238e+02	1.2881646e+00
5.24874e-05    	(3.9962084e+01 -8.5420154e-02 -3.4031905e+01)	1.0835331e+05	2.9237626e+02	1.2881294e+00
5.27936e-05    	(4.0038677e+01 -8.5673105e-02 -3.4096575e+01)	1.0834801e+05	2.9237008e+02	1.2880936e+00
5.30998e-05    	(4.0115122e+01 -8.5884889e-02 -3.4160995e+01)	1.0834271e+05	2.9236391e+02	1.2880577e+00
5.34059e-05    	(4.0190831e+01 -8.6054692e-02 -3.4224686e+01)	1.0833748e+05	2.9235778e+02	1.2880224e+00
5.37119e-05    	(4.0265284e+01 -8.6186496e-02 -3.4287242e+01)	1.0833237e+05	2.9235175e+02	1.2879881e+00
5.40178e-05    	(4.0338049e+01 -8.6285921e-02 -3.4348322e+01)	1.0832742e+05	2.9234584e+02	1.2879552e+00
5.43236e-05    	(4.0408804e+01 -8.6355933e-02 -3.4407683e+01)	1.0832267e+05	2.9234009e+02	1.2879241e+00
5.46294e-05    	(4.0477355e+01 -8.6406173e-02 -3.4465194e+01)	1.0831815e+05	2.9233451e+02	1.2878948e+00
5.4935e-05     	(4.0543399e+01 -8.6375845e-02 -3.4520634e+01)	1.0831388e+05	2.9232913e+02	1.2878676e+00
5.52407e-05    	(4.0607070e+01 -8.6329883e-02 -3.4574134e+01)	1.0830985e+05	2.9232394e+02	1.2878425e+00
5.55462e-05    	(4.0668390e+01 -8.6259985e-02 -3.4625740e+01)	1.0830606e+05	2.9231893e+02	1.2878195e+00
5.58517e-05    	(4.0727453e+01 -8.6182596e-02 -3.4675529e+01)	1.0830250e+05	2.9231410e+02	1.2877984e+00
5.61571e-05    	(4.0784415e+01 -8.6107180e-02 -3.4723642e+01)	1.0829916e+05	2.9230944e+02	1.2877791e+00
5.64625e-05    	(4.0839492e+01 -8.6031489e-02 -3.4770258e+01)	1.0829601e+05	2.9230493e+02	1.2877615e+00
5.67678e-05    	(4.0892957e+01 -8.5960941e-02 -3.4815593e+01)	1.0829302e+05	2.9230054e+02	1.2877452e+00
5.7073e-05     	(4.0945132e+01 -8.5908162e-02 -3.4859892e+01)	1.0829016e+05	2.9229626e+02	1.2877301e+00
5.73782e-05    	(4.0996388e+01 -8.5886231e-02 -3.4903462e+01)	1.0828740e+05	2.9229204e+02	1.2877157e+00
5.76833e-05    	(4.1047156e+01 -8.5905829e-02 -3.4946673e+01)	1.0828468e+05	2.9228786e+02	1.2877017e+00
5.79884e-05    	(4.1097842e+01 -8.5969468e-02 -3.4989873e+01)	1.0828195e+05	2.9228368e+02	1.2876877e+00
5.82934e-05    	(4.1148798e+01 -8.6075380e-02 -3.5033355e+01)	1.0827919e+05	2.9227947e+02	1.2876733e+00
5.85983e-05    	(4.1200329e+01 -8.6224432e-02 -3.5077366e+01)	1.0827635e+05	2.9227520e+02	1.2876583e+00
5.89032e-05    	(4.1252690e+01 -8.6416572e-02 -3.5122112e+01)	1.0827341e+05	2.9227085e+02	1.2876424e+00
5.9208e-05     	(4.1306107e+01 -8.6652324e-02 -3.5167785e+01)	1.0827034e+05	2.9226640e+02	1.2876254e+00
5.95127e-05    	(4.1360738e+01 -8.6926377e-02 -3.5214512e+01)	1.0826712e+05	2.9226184e+02	1.2876072e+00
5.98174e-05    	(4.1416674e+01 -8.7246460e-02 -3.5262359e+01)	1.0826374e+05	2.9225716e+02	1.2875876e+00
6.01219e-05    	(4.1473947e+01 -8.7621149e-02 -3.5311357e+01)	1.0826021e+05	2.9225236e+02	1.2875667e+00
6.04265e-05    	(4.1532484e+01 -8.8041651e-02 -3.5361425e+01)	1.0825652e+05	2.9224743e+02	1.2875444e+00
6.07309e-05    	(4.1592095e+01 -8.8501803e-02 -3.5412367e+01)	1.0825270e+05	2.9224241e+02	1.2875210e+00
6.10353e-05    	(4.1652575e+01 -8.9004080e-02 -3.5463989e+01)	1.0824876e+05	2.9223730e+02	1.2874967e+00
6.13396e-05    	(4.1713685e+01 -8.9544525e-02 -3.5516066e+01)	1.0824475e+05	2.9223213e+02	1.2874717e+00
6.16438e-05    	(4.1775099e+01 -9.0129480e-02 -3.5568323e+01)	1.0824070e+05	2.9222692e+02	1.2874463e+00
6.1948e-05     	(4.1836442e+01 -9.0752632e-02 -3.5620441e+01)	1.0823663e+05	2.9222171e+02	1.2874209e+00
6.22521e-05    	(4.1897371e+01 -9.1429155e-02 -3.5672095e+01)	1.0823261e+05	2.9221653e+02	1.2873957e+00
6.25561e-05    	(4.1957392e+01 -9.2187795e-02 -3.5722879e+01)	1.0822867e+05	2.9221142e+02	1.2873714e+00
6.28601e-05    	(4.2016043e+01 -9.2961928e-02 -3.5772513e+01)	1.0822487e+05	2.9220642e+02	1.2873481e+00
6.3164e-05     	(4.2072874e+01 -9.3730448e-02 -3.5820603e+01)	1.0822126e+05	2.9220156e+02	1.2873265e+00
6.34678e-05    	(4.2127545e+01 -9.4455367e-02 -3.5866863e+01)	1.0821789e+05	2.9219688e+02	1.2873069e+00
6.37716e-05    	(4.2179519e+01 -9.5119927e-02 -3.5910848e+01)	1.0821480e+05	2.9219243e+02	1.2872898e+00
6.40753e-05    	(4.2228503e+01 -9.5734776e-02 -3.5952304e+01)	1.0821205e+05	2.9218823e+02	1.2872754e+00
6.4379e-05     	(4.2274128e+01 -9.6332429e-02 -3.5990935e+01)	1.0820967e+05	2.9218433e+02	1.2872642e+00
6.46826e-05    	(4.2315822e+01 -9.6921303e-02 -3.6026281e+01)	1.0820772e+05	2.9218075e+02	1.2872567e+00
6.49862e-05    	(4.2353113e+01 -9.7489172e-02 -3.6057950e+01)	1.0820626e+05	2.9217756e+02	1.2872534e+00
6.52898e-05    	(4.2385753e+01 -9.8026349e-02 -3.6085714e+01)	1.0820531e+05	2.9217476e+02	1.2872544e+00
6.55933e-05    	(4.2413589e+01 -9.8514043e-02 -3.6109419e+01)	1.0820489e+05	2.9217237e+02	1.2872599e+00
6.58968e-05    	(4.2436309e+01 -9.8951008e-02 -3.6128811e+01)	1.0820505e+05	2.9217043e+02	1.2872703e+00
6.62003e-05    	(4.2453695e+01 -9.9325036e-02 -3.6143710e+01)	1.0820581e+05	2.9216895e+02	1.2872858e+00
6.65037e-05    	(4.2465498e+01 -9.9638097e-02 -3.6153917e+01)	1.0820718e+05	2.9216794e+02	1.2873066e+00
6.68072e-05    	(4.2471526e+01 -9.9878403e-02 -3.6159272e+01)	1.0820920e+05	2.9216744e+02	1.2873328e+00
6.71107e-05    	(4.2471634e+01 -1.0003413e-01 -3.6159644e+01)	1.0821187e+05	2.9216744e+02	1.2873646e+00
6.74142e-05    	(4.2465678e+01 -1.0013350e-01 -3.6154895e+01)	1.0821522e+05	2.9216797e+02	1.2874022e+00
6.77177e-05    	(4.2453741e+01 -1.0019762e-01 -3.6145075e+01)	1.0821924e+05	2.9216901e+02	1.2874454e+00
6.80212e-05    	(4.2435994e+01 -1.0021194e-01 -3.6130327e+01)	1.0822392e+05	2.9217055e+02	1.2874943e+00
6.83247e-05    	(4.2412629e+01 -1.0017618e-01 -3.6110812e+01)	1.0822922e+05	2.9217259e+02	1.2875484e+00
6.86283e-05    	(4.2383921e+01 -1.0008938e-01 -3.6086723e+01)	1.0823512e+05	2.9217508e+02	1.2876077e+00
6.89319e-05    	(4.2350224e+01 -9.9963498e-02 -3.6058357e+01)	1.0824159e+05	2.9217801e+02	1.2876717e+00
6.92356e-05    	(4.2311813e+01 -9.9869299e-02 -3.6025906e+01)	1.0824858e+05	2.9218135e+02	1.2877403e+00
6.95393e-05    	(4.2268860e+01 -9.9785190e-02 -3.5989557e+01)	1.0825608e+05	2.9218508e+02	1.2878131e+00
6.9843e-05     	(4.2221799e+01 -9.9671198e-02 -3.5949706e+01)	1.0826402e+05	2.9218915e+02	1.2878897e+00
7.01468e-05    	(4.2171162e+01 -9.9528056e-02 -3.5906778e+01)	1.0827236e+05	2.9219352e+02	1.2879697e+00
7.04506e-05    	(4.2117569e+01 -9.9356235e-02 -3.5861273e+01)	1.0828102e+05	2.9219815e+02	1.2880525e+00
7.07545e-05    	(4.2061641e+01 -9.9157924e-02 -3.5813721e+01)	1.0828994e+05	2.9220297e+02	1.2881374e+00
7.10585e-05    	(4.2003988e+01 -9.8945671e-02 -3.5764641e+01)	1.0829905e+05	2.9220794e+02	1.2882239e+00
7.13625e-05    	(4.1945257e+01 -9.8727541e-02 -3.5714571e+01)	1.0830827e+05	2.9221299e+02	1.2883114e+00
7.16666e-05    	(4.1886108e+01 -9.8511787e-02 -3.5664069e+01)	1.0831753e+05	2.9221807e+02	1.2883992e+00
7.19707e-05    	(4.1827221e+01 -9.8313465e-02 -3.5613711e+01)	1.0832676e+05	2.9222313e+02	1.2884868e+00
7.22749e-05    	(4.1769267e+01 -9.8136512e-02 -3.5564068e+01)	1.0833588e+05	2.9222811e+02	1.2885734e+00
7.25791e-05    	(4.1712914e+01 -9.7983089e-02 -3.5515722e+01)	1.0834482e+05	2.9223294e+02	1.2886586e+00
7.28834e-05    	(4.1658763e+01 -9.7845799e-02 -3.5469200e+01)	1.0835352e+05	2.9223758e+02	1.2887416e+00
7.31878e-05    	(4.1607348e+01 -9.7711740e-02 -3.5424964e+01)	1.0836191e+05	2.9224199e+02	1.2888220e+00
7.34921e-05    	(4.1559189e+01 -9.7560808e-02 -3.5383469e+01)	1.0836993e+05	2.9224611e+02	1.2888993e+00
7.37966e-05    	(4.1514837e+01 -9.7388065e-02 -3.5345206e+01)	1.0837754e+05	2.9224992e+02	1.2889731e+00
7.4101e-05     	(4.1474824e+01 -9.7209429e-02 -3.5310639e+01)	1.0838467e+05	2.9225335e+02	1.2890428e+00
7.44055e-05    	(4.1439481e+01 -9.7044597e-02 -3.5280024e+01)	1.0839128e+05	2.9225638e+02	1.2891082e+00
7.471e-05      	(4.1409068e+01 -9.6893120e-02 -3.5253573e+01)	1.0839736e+05	2.9225900e+02	1.2891689e+00
7.50145e-05    	(4.1383876e+01 -9.6738190e-02 -3.5231549e+01)	1.0840287e+05	2.9226118e+02	1.2892248e+00
7.5319e-05     	(4.1364060e+01 -9.6557854e-02 -3.5214100e+01)	1.0840779e+05	2.9226291e+02	1.2892758e+00
7.56236e-05    	(4.1349765e+01 -9.6346238e-02 -3.5201371e+01)	1.0841211e+05	2.9226417e+02	1.2893216e+00
7.59281e-05    	(4.1341160e+01 -9.6106039e-02 -3.5193538e+01)	1.0841581e+05	2.9226495e+02	1.2893622e+00
7.62326e-05    	(4.1338205e+01 -9.5830534e-02 -3.5190603e+01)	1.0841889e+05	2.9226526e+02	1.2893975e+00
7.65371e-05    	(4.1340722e+01 -9.5531727e-02 -3.5192403e+01)	1.0842137e+05	2.9226510e+02	1.2894277e+00
7.68416e-05    	(4.1348590e+01 -9.5215996e-02 -3.5198828e+01)	1.0842326e+05	2.9226449e+02	1.2894529e+00
7.71461e-05    	(4.1361660e+01 -9.4899050e-02 -3.5209745e+01)	1.0842459e+05	2.9226345e+02	1.2894733e+00
7.74506e-05    	(4.1379685e+01 -9.4583668e-02 -3.5224949e+01)	1.0842537e+05	2.9226198e+02	1.2894890e+00
7.7755e-05     	(4.1402373e+01 -9.4264988e-02 -3.5244197e+01)	1.0842564e+05	2.9226012e+02	1.2895004e+00
7.80594e-05    	(4.1429404e+01 -9.3942791e-02 -3.5267215e+01)	1.0842543e+05	2.9225789e+02	1.2895078e+00
7.83638e-05    	(4.1460405e+01 -9.3604615e-02 -3.5293707e+01)	1.0842479e+05	2.9225533e+02	1.2895114e+00
7.86681e-05    	(4.1495030e+01 -9.3234239e-02 -3.5323390e+01)	1.0842374e+05	2.9225245e+02	1.2895116e+00
7.89724e-05    	(4.1532799e+01 -9.2843199e-02 -3.5355827e+01)	1.0842234e+05	2.9224930e+02	1.2895088e+00
7.92766e-05    	(4.1573122e+01 -9.2473809e-02 -3.5390459e+01)	1.0842066e+05	2.9224594e+02	1.2895036e+00
7.95808e-05    	(4.1615444e+01 -9.2130342e-02 -3.5426803e+01)	1.0841875e+05	2.9224240e+02	1.2894965e+00
7.9885e-05     	(4.1659242e+01 -9.1790193e-02 -3.5464412e+01)	1.0841668e+05	2.9223873e+02	1.2894880e+00
8.01891e-05    	(4.1704098e+01 -9.1435328e-02 -3.5502956e+01)	1.0841448e+05	2.9223497e+02	1.2894783e+00
8.04932e-05    	(4.1749596e+01 -9.1057198e-02 -3.5542106e+01)	1.0841219e+05	2.9223114e+02	1.2894680e+00
8.07973e-05    	(4.1795259e+01 -9.0679374e-02 -3.5581429e+01)	1.0840988e+05	2.9222729e+02	1.2894575e+00
8.11012e-05    	(4.1840635e+01 -9.0326640e-02 -3.5620517e+01)	1.0840759e+05	2.9222346e+02	1.2894471e+00
8.14052e-05    	(4.1885337e+01 -9.0008540e-02 -3.5659047e+01)	1.0840537e+05	2.9221968e+02	1.2894373e+00
8.17091e-05    	(4.1929041e+01 -8.9724318e-02 -3.5696745e+01)	1.0840325e+05	2.9221598e+02	1.2894283e+00
8.2013e-05     	(4.1971453e+01 -8.9476813e-02 -3.5733362e+01)	1.0840125e+05	2.9221238e+02	1.2894205e+00
8.23168e-05    	(4.2012340e+01 -8.9263875e-02 -3.5768697e+01)	1.0839942e+05	2.9220890e+02	1.2894140e+00
8.26206e-05    	(4.2051505e+01 -8.9083861e-02 -3.5802575e+01)	1.0839777e+05	2.9220556e+02	1.2894091e+00
8.29243e-05    	(4.2088762e+01 -8.8942276e-02 -3.5834832e+01)	1.0839633e+05	2.9220238e+02	1.2894058e+00
8.32281e-05    	(4.2123988e+01 -8.8841552e-02 -3.5865350e+01)	1.0839510e+05	2.9219937e+02	1.2894045e+00
8.35317e-05    	(4.2157127e+01 -8.8784042e-02 -3.5894080e+01)	1.0839409e+05	2.9219654e+02	1.2894050e+00
8.38354e-05    	(4.2188184e+01 -8.8767181e-02 -3.5921022e+01)	1.0839332e+05	2.9219387e+02	1.2894075e+00
8.4139e-05     	(4.2217211e+01 -8.8784118e-02 -3.5946217e+01)	1.0839276e+05	2.9219138e+02	1.2894118e+00
8.44426e-05    	(4.2244280e+01 -8.8841762e-02 -3.5969722e+01)	1.0839242e+05	2.9218906e+02	1.2894180e+00
8.47462e-05    	(4.2269477e+01 -8.8949184e-02 -3.5991613e+01)	1.0839228e+05	2.9218689e+02	1.2894259e+00
8.50497e-05    	(4.2292861e+01 -8.9116828e-02 -3.6011944e+01)	1.0839234e+05	2.9218487e+02	1.2894355e+00
8.53532e-05    	(4.2314513e+01 -8.9343175e-02 -3.6030790e+01)	1.0839259e+05	2.9218300e+02	1.2894467e+00
8.56567e-05    	(4.2334587e+01 -8.9609601e-02 -3.6048279e+01)	1.0839301e+05	2.9218127e+02	1.2894593e+00
8.59601e-05    	(4.2353242e+01 -8.9907440e-02 -3.6064542e+01)	1.0839359e+05	2.9217965e+02	1.2894734e+00
8.62635e-05    	(4.2370621e+01 -9.0235494e-02 -3.6079703e+01)	1.0839431e+05	2.9217815e+02	1.2894886e+00
8.65669e-05    	(4.2386839e+01 -9.0594689e-02 -3.6093869e+01)	1.0839517e+05	2.9217674e+02	1.2895049e+00
8.68703e-05    	(4.2402008e+01 -9.0988374e-02 -3.6107140e+01)	1.0839613e+05	2.9217543e+02	1.2895221e+00
8.71737e-05    	(4.2416251e+01 -9.1409525e-02 -3.6119622e+01)	1.0839720e+05	2.9217419e+02	1.2895403e+00
8.7477e-05     	(4.2429679e+01 -9.1850080e-02 -3.6131410e+01)	1.0839836e+05	2.9217303e+02	1.2895592e+00
8.77803e-05    	(4.2442421e+01 -9.2301338e-02 -3.6142611e+01)	1.0839959e+05	2.9217192e+02	1.2895788e+00
8.80836e-05    	(4.2454597e+01 -9.2759193e-02 -3.6153328e+01)	1.0840089e+05	2.9217086e+02	1.2895988e+00
8.83869e-05    	(4.2466332e+01 -9.3218288e-02 -3.6163668e+01)	1.0840223e+05	2.9216983e+02	1.2896193e+00
8.86901e-05    	(4.2477738e+01 -9.3675309e-02 -3.6173724e+01)	1.0840361e+05	2.9216884e+02	1.2896401e+00
8.89933e-05    	(4.2488934e+01 -9.4125945e-02 -3.6183592e+01)	1.0840502e+05	2.9216786e+02	1.2896611e+00