# Field minima and maxima
# Time         	field          	min            	location(min)  	processor      	max            	location(max)  	processor      
0              	T              	2.9300000e+02	(-2.0034457e-03 1.1910000e-01 -4.4969990e-03)	0	2.9400000e+02	(-4.7136236e-04 9.8319982e-02 -1.4084477e-03)	0
1.19904e-07    	T              	2.9400000e+02	(-1.1587062e-02 2.2587120e-02 5.8564509e-03)	11	2.9400000e+02	(-3.1080214e-03 7.3841650e-02 -6.3111480e-04)	5
1.57467e-07    	T              	2.9399997e+02	(-4.6252022e-04 1.3040197e-04 -3.6086318e-03)	15	2.9400006e+02	(-4.2510013e-04 2.2587547e-21 -3.6039587e-03)	15
1.9503e-07     	T              	2.9399995e+02	(-4.6252022e-04 1.3040197e-04 -3.6086318e-03)	15	2.9400010e+02	(-4.2510013e-04 2.2587547e-21 -3.6039587e-03)	15
2.32593e-07    	T              	2.9399994e+02	(-4.6252022e-04 1.3040197e-04 -3.6086318e-03)	15	2.9400021e+02	(5.3766621e-03 1.2393086e-02 -1.1811650e-02)	8
2.70156e-07    	T              	2.9399993e+02	(-4.6252022e-04 1.3040197e-04 -3.6086318e-03)	15	2.9400046e+02	(5.3766621e-03 1.2393086e-02 -1.1811650e-02)	8
3.07719e-07    	T              	2.9399986e+02	(7.8847983e-03 1.2382070e-02 1.0307137e-02)	10	2.9400076e+02	(5.3766621e-03 1.2393086e-02 -1.1811650e-02)	8
3.45282e-07    	T              	2.9399975e+02	(7.8847983e-03 1.2382070e-02 1.0307137e-02)	10	2.9400110e+02	(5.3766621e-03 1.2393086e-02 -1.1811650e-02)	8
3.82845e-07    	T              	2.9399964e+02	(7.8847983e-03 1.2382070e-02 1.0307137e-02)	10	2.9400146e+02	(5.3766621e-03 1.2393086e-02 -1.1811650e-02)	8
4.20408e-07    	T              	2.9399951e+02	(7.8847983e-03 1.2382070e-02 1.0307137e-02)	10	2.9400183e+02	(5.3766621e-03 1.2393086e-02 -1.1811650e-02)	8
4.57971e-07    	T              	2.9399937e+02	(7.8847983e-03 1.2382070e-02 1.0307137e-02)	10	2.9400221e+02	(5.3766621e-03 1.2393086e-02 -1.1811650e-02)	8
4.95534e-07    	T              	2.9399923e+02	(7.8847983e-03 1.2382070e-02 1.0307137e-02)	10	2.9400259e+02	(5.3766621e-03 1.2393086e-02 -1.1811650e-02)	8
5.33097e-07    	T              	2.9399908e+02	(7.8847983e-03 1.2382070e-02 1.0307137e-02)	10	2.9400296e+02	(5.3766621e-03 1.2393086e-02 -1.1811650e-02)	8
5.7066e-07     	T              	2.9399893e+02	(7.8847983e-03 1.2382070e-02 1.0307137e-02)	10	2.9400333e+02	(5.3766621e-03 1.2393086e-02 -1.1811650e-02)	8
6.08223e-07    	T              	2.9399877e+02	(7.8847983e-03 1.2382070e-02 1.0307137e-02)	10	2.9400369e+02	(5.3766621e-03 1.2393086e-02 -1.1811650e-02)	8
6.45786e-07    	T              	2.9399861e+02	(7.8847983e-03 1.2382070e-02 1.0307137e-02)	10	2.9400405e+02	(5.3766621e-03 1.2393086e-02 -1.1811650e-02)	8
6.8335e-07     	T              	2.9399844e+02	(7.8847983e-03 1.2382070e-02 1.0307137e-02)	10	2.9400440e+02	(5.3766621e-03 1.2393086e-02 -1.1811650e-02)	8
7.20913e-07    	T              	2.9399827e+02	(7.8847983e-03 1.2382070e-02 1.0307137e-02)	10	2.9400476e+02	(5.3766621e-03 1.2393086e-02 -1.1811650e-02)	8
7.58476e-07    	T              	2.9399809e+02	(7.8847983e-03 1.2382070e-02 1.0307137e-02)	10	2.9400512e+02	(5.3766621e-03 1.2393086e-02 -1.1811650e-02)	8
7.96039e-07    	T              	2.9399791e+02	(7.8847983e-03 1.2382070e-02 1.0307137e-02)	10	2.9400548e+02	(5.3766621e-03 1.2393086e-02 -1.1811650e-02)	8
8.33602e-07    	T              	2.9399772e+02	(7.8847983e-03 1.2382070e-02 1.0307137e-02)	10	2.9400584e+02	(5.3766621e-03 1.2393086e-02 -1.1811650e-02)	8
8.71165e-07    	T              	2.9399753e+02	(7.8847983e-03 1.2382070e-02 1.0307137e-02)	10	2.9400619e+02	(5.3766621e-03 1.2393086e-02 -1.1811650e-02)	8
9.08728e-07    	T              	2.9399733e+02	(7.8847983e-03 1.2382070e-02 1.0307137e-02)	10	2.9400654e+02	(5.3766621e-03 1.2393086e-02 -1.1811650e-02)	8
9.46291e-07    	T              	2.9399713e+02	(7.8847983e-03 1.2382070e-02 1.0307137e-02)	10	2.9400688e+02	(5.3766621e-03 1.2393086e-02 -1.1811650e-02)	8
9.83854e-07    	T              	2.9399693e+02	(7.8847983e-03 1.2382070e-02 1.0307137e-02)	10	2.9400722e+02	(5.3766621e-03 1.2393086e-02 -1.1811650e-02)	8
1.02142e-06    	T              	2.9399672e+02	(7.8847983e-03 1.2382070e-02 1.0307137e-02)	10	2.9400755e+02	(5.3766621e-03 1.2393086e-02 -1.1811650e-02)	8
1.05898e-06    	T              	2.9399651e+02	(7.8847983e-03 1.2382070e-02 1.0307137e-02)	10	2.9400788e+02	(5.3766621e-03 1.2393086e-02 -1.1811650e-02)	8
1.09654e-06    	T              	2.9399630e+02	(7.8847983e-03 1.2382070e-02 1.0307137e-02)	10	2.9400821e+02	(5.3766621e-03 1.2393086e-02 -1.1811650e-02)	8
1.13411e-06    	T              	2.9399608e+02	(7.8847983e-03 1.2382070e-02 1.0307137e-02)	10	2.9400853e+02	(5.3766621e-03 1.2393086e-02 -1.1811650e-02)	8
1.17167e-06    	T              	2.9399587e+02	(7.8847983e-03 1.2382070e-02 1.0307137e-02)	10	2.9400894e+02	(-7.9377515e-03 2.7118474e-02 1.0150725e-02)	10
1.20923e-06    	T              	2.9399565e+02	(7.8847983e-03 1.2382070e-02 1.0307137e-02)	10	2.9400936e+02	(-7.9377515e-03 2.7118474e-02 1.0150725e-02)	10
1.24679e-06    	T              	2.9399542e+02	(7.8847983e-03 1.2382070e-02 1.0307137e-02)	10	2.9400977e+02	(-7.9377515e-03 2.7118474e-02 1.0150725e-02)	10
1.28436e-06    	T              	2.9399520e+02	(7.8847983e-03 1.2382070e-02 1.0307137e-02)	10	2.9401018e+02	(-7.9377515e-03 2.7118474e-02 1.0150725e-02)	10
1.32192e-06    	T              	2.9399497e+02	(7.8847983e-03 1.2382070e-02 1.0307137e-02)	10	2.9401058e+02	(-7.9377515e-03 2.7118474e-02 1.0150725e-02)	10
1.35948e-06    	T              	2.9399474e+02	(7.8847983e-03 1.2382070e-02 1.0307137e-02)	10	2.9401098e+02	(-7.9377515e-03 2.7118474e-02 1.0150725e-02)	10
1.39705e-06    	T              	2.9399450e+02	(7.8847983e-03 1.2382070e-02 1.0307137e-02)	10	2.9401138e+02	(-7.9377515e-03 2.7118474e-02 1.0150725e-02)	10
1.43461e-06    	T              	2.9399427e+02	(7.8847983e-03 1.2382070e-02 1.0307137e-02)	10	2.9401177e+02	(-7.9377515e-03 2.7118474e-02 1.0150725e-02)	10
1.47217e-06    	T              	2.9399403e+02	(7.8847983e-03 1.2382070e-02 1.0307137e-02)	10	2.9401216e+02	(-7.9377515e-03 2.7118474e-02 1.0150725e-02)	10
1.50974e-06    	T              	2.9399379e+02	(7.8847983e-03 1.2382070e-02 1.0307137e-02)	10	2.9401254e+02	(-7.9377515e-03 2.7118474e-02 1.0150725e-02)	10
1.5473e-06     	T              	2.9399355e+02	(7.8847983e-03 1.2382070e-02 1.0307137e-02)	10	2.9401293e+02	(-7.9377515e-03 2.7118474e-02 1.0150725e-02)	10
1.58486e-06    	T              	2.9399330e+02	(7.8847983e-03 1.2382070e-02 1.0307137e-02)	10	2.9401331e+02	(-7.9377515e-03 2.7118474e-02 1.0150725e-02)	10
1.62243e-06    	T              	2.9399306e+02	(7.8847983e-03 1.2382070e-02 1.0307137e-02)	10	2.9401369e+02	(-7.9377515e-03 2.7118474e-02 1.0150725e-02)	10
1.65999e-06    	T              	2.9399281e+02	(7.8847983e-03 1.2382070e-02 1.0307137e-02)	10	2.9401406e+02	(-7.9377515e-03 2.7118474e-02 1.0150725e-02)	10
1.69755e-06    	T              	2.9399256e+02	(7.8847983e-03 1.2382070e-02 1.0307137e-02)	10	2.9401443e+02	(-7.9377515e-03 2.7118474e-02 1.0150725e-02)	10
1.73511e-06    	T              	2.9399230e+02	(7.8847983e-03 1.2382070e-02 1.0307137e-02)	10	2.9401480e+02	(-7.9377515e-03 2.7118474e-02 1.0150725e-02)	10
1.77268e-06    	T              	2.9399205e+02	(7.8847983e-03 1.2382070e-02 1.0307137e-02)	10	2.9401517e+02	(-7.9377515e-03 2.7118474e-02 1.0150725e-02)	10
1.81024e-06    	T              	2.9399179e+02	(7.8847983e-03 1.2382070e-02 1.0307137e-02)	10	2.9401553e+02	(-7.9377515e-03 2.7118474e-02 1.0150725e-02)	10
1.8478e-06     	T              	2.9399153e+02	(7.8847983e-03 1.2382070e-02 1.0307137e-02)	10	2.9401589e+02	(-7.9377515e-03 2.7118474e-02 1.0150725e-02)	10
1.88537e-06    	T              	2.9399127e+02	(7.8847983e-03 1.2382070e-02 1.0307137e-02)	10	2.9401629e+02	(-1.2029981e-02 2.3313412e-02 4.7453765e-03)	11
1.92293e-06    	T              	2.9399101e+02	(7.8847983e-03 1.2382070e-02 1.0307137e-02)	10	2.9401678e+02	(-1.2029981e-02 2.3313412e-02 4.7453765e-03)	11
1.96049e-06    	T              	2.9399074e+02	(7.8847983e-03 1.2382070e-02 1.0307137e-02)	10	2.9401727e+02	(-1.2029981e-02 2.3313412e-02 4.7453765e-03)	11
1.99806e-06    	T              	2.9399048e+02	(7.8847983e-03 1.2382070e-02 1.0307137e-02)	10	2.9401776e+02	(-1.2029981e-02 2.3313412e-02 4.7453765e-03)	11
2.03562e-06    	T              	2.9399021e+02	(7.8847983e-03 1.2382070e-02 1.0307137e-02)	10	2.9401824e+02	(-1.2029981e-02 2.3313412e-02 4.7453765e-03)	11
2.07318e-06    	T              	2.9398994e+02	(7.8847983e-03 1.2382070e-02 1.0307137e-02)	10	2.9401872e+02	(-1.2029981e-02 2.3313412e-02 4.7453765e-03)	11
2.11074e-06    	T              	2.9398967e+02	(7.8847983e-03 1.2382070e-02 1.0307137e-02)	10	2.9401920e+02	(-1.2029981e-02 2.3313412e-02 4.7453765e-03)	11
2.14831e-06    	T              	2.9398939e+02	(7.8847983e-03 1.2382070e-02 1.0307137e-02)	10	2.9401967e+02	(-1.2029981e-02 2.3313412e-02 4.7453765e-03)	11
2.18587e-06    	T              	2.9398912e+02	(7.8847983e-03 1.2382070e-02 1.0307137e-02)	10	2.9402014e+02	(-1.2029981e-02 2.3313412e-02 4.7453765e-03)	11
2.22343e-06    	T              	2.9398885e+02	(7.8847983e-03 1.2382070e-02 1.0307137e-02)	10	2.9402061e+02	(-1.2029981e-02 2.3313412e-02 4.7453765e-03)	11
2.261e-06      	T              	2.9398857e+02	(7.8847983e-03 1.2382070e-02 1.0307137e-02)	10	2.9402107e+02	(-1.2029981e-02 2.3313412e-02 4.7453765e-03)	11
2.29856e-06    	T              	2.9398829e+02	(7.8847983e-03 1.2382070e-02 1.0307137e-02)	10	2.9402152e+02	(-1.2029981e-02 2.3313412e-02 4.7453765e-03)	11
2.33612e-06    	T              	2.9398801e+02	(7.8847983e-03 1.2382070e-02 1.0307137e-02)	10	2.9402200e+02	(-1.0843538e-02 2.0786351e-02 7.0761401e-03)	11
2.37369e-06    	T              	2.9398773e+02	(7.8847983e-03 1.2382070e-02 1.0307137e-02)	10	2.9402252e+02	(-1.0843538e-02 2.0786351e-02 7.0761401e-03)	11
2.41125e-06    	T              	2.9398745e+02	(7.8847983e-03 1.2382070e-02 1.0307137e-02)	10	2.9402304e+02	(-1.0843538e-02 2.0786351e-02 7.0761401e-03)	11
2.44881e-06    	T              	2.9398717e+02	(7.8847983e-03 1.2382070e-02 1.0307137e-02)	10	2.9402356e+02	(-1.0843538e-02 2.0786351e-02 7.0761401e-03)	11
2.48637e-06    	T              	2.9398689e+02	(7.8847983e-03 1.2382070e-02 1.0307137e-02)	10	2.9402407e+02	(-1.0843538e-02 2.0786351e-02 7.0761401e-03)	11
2.52394e-06    	T              	2.9398660e+02	(7.8847983e-03 1.2382070e-02 1.0307137e-02)	10	2.9402458e+02	(-1.0843538e-02 2.0786351e-02 7.0761401e-03)	11
2.5615e-06     	T              	2.9398632e+02	(7.8847983e-03 1.2382070e-02 1.0307137e-02)	10	2.9402508e+02	(-1.0843538e-02 2.0786351e-02 7.0761401e-03)	11
2.59906e-06    	T              	2.9398603e+02	(7.8847983e-03 1.2382070e-02 1.0307137e-02)	10	2.9402559e+02	(-1.0843538e-02 2.0786351e-02 7.0761401e-03)	11
2.63663e-06    	T              	2.9398575e+02	(7.8847983e-03 1.2382070e-02 1.0307137e-02)	10	2.9402608e+02	(-1.0843538e-02 2.0786351e-02 7.0761401e-03)	11
2.67419e-06    	T              	2.9398546e+02	(7.8847983e-03 1.2382070e-02 1.0307137e-02)	10	2.9402658e+02	(-1.0843538e-02 2.0786351e-02 7.0761401e-03)	11
2.71175e-06    	T              	2.9398517e+02	(7.8847983e-03 1.2382070e-02 1.0307137e-02)	10	2.9402707e+02	(-1.0843538e-02 2.0786351e-02 7.0761401e-03)	11
2.74932e-06    	T              	2.9398488e+02	(7.8847983e-03 1.2382070e-02 1.0307137e-02)	10	2.9402756e+02	(-1.0843538e-02 2.0786351e-02 7.0761401e-03)	11
2.78688e-06    	T              	2.9398459e+02	(7.8847983e-03 1.2382070e-02 1.0307137e-02)	10	2.9402805e+02	(-1.0843538e-02 2.0786351e-02 7.0761401e-03)	11
2.82444e-06    	T              	2.9398430e+02	(7.8847983e-03 1.2382070e-02 1.0307137e-02)	10	2.9402853e+02	(-1.0843538e-02 2.0786351e-02 7.0761401e-03)	11
2.86201e-06    	T              	2.9398401e+02	(7.8847983e-03 1.2382070e-02 1.0307137e-02)	10	2.9402901e+02	(-1.0843538e-02 2.0786351e-02 7.0761401e-03)	11
2.89957e-06    	T              	2.9398372e+02	(7.8847983e-03 1.2382070e-02 1.0307137e-02)	10	2.9402949e+02	(-1.0843538e-02 2.0786351e-02 7.0761401e-03)	11
2.93713e-06    	T              	2.9398343e+02	(7.8847983e-03 1.2382070e-02 1.0307137e-02)	10	2.9402996e+02	(-1.0843538e-02 2.0786351e-02 7.0761401e-03)	11
2.97469e-06    	T              	2.9398313e+02	(7.8847983e-03 1.2382070e-02 1.0307137e-02)	10	2.9403044e+02	(-1.0843538e-02 2.0786351e-02 7.0761401e-03)	11
3.01226e-06    	T              	2.9398284e+02	(7.8847983e-03 1.2382070e-02 1.0307137e-02)	10	2.9403091e+02	(-1.0843538e-02 2.0786351e-02 7.0761401e-03)	11
3.04982e-06    	T              	2.9398254e+02	(7.8847983e-03 1.2382070e-02 1.0307137e-02)	10	2.9403138e+02	(-1.0843538e-02 2.0786351e-02 7.0761401e-03)	11
3.08738e-06    	T              	2.9398225e+02	(7.8847983e-03 1.2382070e-02 1.0307137e-02)	10	2.9403184e+02	(-1.0843538e-02 2.0786351e-02 7.0761401e-03)	11
3.12495e-06    	T              	2.9398195e+02	(7.8847983e-03 1.2382070e-02 1.0307137e-02)	10	2.9403231e+02	(-1.0843538e-02 2.0786351e-02 7.0761401e-03)	11
3.16251e-06    	T              	2.9398165e+02	(7.8847983e-03 1.2382070e-02 1.0307137e-02)	10	2.9403278e+02	(-1.0843538e-02 2.0786351e-02 7.0761401e-03)	11
3.20007e-06    	T              	2.9398135e+02	(7.8847983e-03 1.2382070e-02 1.0307137e-02)	10	2.9403324e+02	(-1.0843538e-02 2.0786351e-02 7.0761401e-03)	11
3.23764e-06    	T              	2.9398105e+02	(7.8847983e-03 1.2382070e-02 1.0307137e-02)	10	2.9403370e+02	(-1.0843538e-02 2.0786351e-02 7.0761401e-03)	11
3.2752e-06     	T              	2.9398075e+02	(7.8847983e-03 1.2382070e-02 1.0307137e-02)	10	2.9403417e+02	(-1.0843538e-02 2.0786351e-02 7.0761401e-03)	11
3.31276e-06    	T              	2.9398045e+02	(7.8847983e-03 1.2382070e-02 1.0307137e-02)	10	2.9403463e+02	(-1.0843538e-02 2.0786351e-02 7.0761401e-03)	11
3.35032e-06    	T              	2.9398015e+02	(7.8847983e-03 1.2382070e-02 1.0307137e-02)	10	2.9403509e+02	(-1.0843538e-02 2.0786351e-02 7.0761401e-03)	11
3.38789e-06    	T              	2.9397985e+02	(7.8847983e-03 1.2382070e-02 1.0307137e-02)	10	2.9403555e+02	(-1.0843538e-02 2.0786351e-02 7.0761401e-03)	11
3.42545e-06    	T              	2.9397954e+02	(7.8847983e-03 1.2382070e-02 1.0307137e-02)	10	2.9403601e+02	(-1.0843538e-02 2.0786351e-02 7.0761401e-03)	11
3.46301e-06    	T              	2.9397924e+02	(7.8847983e-03 1.2382070e-02 1.0307137e-02)	10	2.9403647e+02	(-1.0843538e-02 2.0786351e-02 7.0761401e-03)	11
3.50058e-06    	T              	2.9397893e+02	(7.8847983e-03 1.2382070e-02 1.0307137e-02)	10	2.9403693e+02	(-1.0843538e-02 2.0786351e-02 7.0761401e-03)	11
3.53814e-06    	T              	2.9397863e+02	(7.8847983e-03 1.2382070e-02 1.0307137e-02)	10	2.9403739e+02	(-1.0843538e-02 2.0786351e-02 7.0761401e-03)	11
3.5757e-06     	T              	2.9397832e+02	(7.8847983e-03 1.2382070e-02 1.0307137e-02)	10	2.9403785e+02	(-1.0843538e-02 2.0786351e-02 7.0761401e-03)	11
3.61327e-06    	T              	2.9397801e+02	(7.8847983e-03 1.2382070e-02 1.0307137e-02)	10	2.9403831e+02	(-1.0843538e-02 2.0786351e-02 7.0761401e-03)	11
3.65083e-06    	T              	2.9397771e+02	(7.8847983e-03 1.2382070e-02 1.0307137e-02)	10	2.9403877e+02	(-1.0843538e-02 2.0786351e-02 7.0761401e-03)	11
3.68839e-06    	T              	2.9397740e+02	(7.8847983e-03 1.2382070e-02 1.0307137e-02)	10	2.9403923e+02	(-1.0843538e-02 2.0786351e-02 7.0761401e-03)	11
3.72595e-06    	T              	2.9397709e+02	(7.8847983e-03 1.2382070e-02 1.0307137e-02)	10	2.9403969e+02	(-1.0843538e-02 2.0786351e-02 7.0761401e-03)	11
3.76352e-06    	T              	2.9397678e+02	(7.8847983e-03 1.2382070e-02 1.0307137e-02)	10	2.9404015e+02	(-1.0843538e-02 2.0786351e-02 7.0761401e-03)	11
3.80108e-06    	T              	2.9397647e+02	(7.8847983e-03 1.2382070e-02 1.0307137e-02)	10	2.9404061e+02	(-1.0843538e-02 2.0786351e-02 7.0761401e-03)	11
3.83864e-06    	T              	2.9397616e+02	(7.8847983e-03 1.2382070e-02 1.0307137e-02)	10	2.9404108e+02	(-1.0843538e-02 2.0786351e-02 7.0761401e-03)	11
3.87621e-06    	T              	2.9397584e+02	(7.8847983e-03 1.2382070e-02 1.0307137e-02)	10	2.9404154e+02	(-1.0843538e-02 2.0786351e-02 7.0761401e-03)	11
3.91377e-06    	T              	2.9397553e+02	(7.8847983e-03 1.2382070e-02 1.0307137e-02)	10	2.9404200e+02	(-1.0843538e-02 2.0786351e-02 7.0761401e-03)	11
3.95133e-06    	T              	2.9397522e+02	(7.8847983e-03 1.2382070e-02 1.0307137e-02)	10	2.9404246e+02	(-1.0843538e-02 2.0786351e-02 7.0761401e-03)	11
3.9889e-06     	T              	2.9397490e+02	(7.8847983e-03 1.2382070e-02 1.0307137e-02)	10	2.9404293e+02	(-1.0843538e-02 2.0786351e-02 7.0761401e-03)	11
4.02646e-06    	T              	2.9397459e+02	(7.8847983e-03 1.2382070e-02 1.0307137e-02)	10	2.9404339e+02	(-1.0843538e-02 2.0786351e-02 7.0761401e-03)	11
4.06402e-06    	T              	2.9397427e+02	(7.8847983e-03 1.2382070e-02 1.0307137e-02)	10	2.9404385e+02	(-1.0843538e-02 2.0786351e-02 7.0761401e-03)	11
4.10159e-06    	T              	2.9397395e+02	(7.8847983e-03 1.2382070e-02 1.0307137e-02)	10	2.9404431e+02	(-1.0843538e-02 2.0786351e-02 7.0761401e-03)	11
4.13915e-06    	T              	2.9397363e+02	(7.8847983e-03 1.2382070e-02 1.0307137e-02)	10	2.9404478e+02	(-1.0843538e-02 2.0786351e-02 7.0761401e-03)	11
4.17671e-06    	T              	2.9397332e+02	(7.8847983e-03 1.2382070e-02 1.0307137e-02)	10	2.9404524e+02	(-1.0843538e-02 2.0786351e-02 7.0761401e-03)	11
4.21427e-06    	T              	2.9397300e+02	(7.8847983e-03 1.2382070e-02 1.0307137e-02)	10	2.9404570e+02	(-1.0843538e-02 2.0786351e-02 7.0761401e-03)	11
4.25184e-06    	T              	2.9397268e+02	(7.8847983e-03 1.2382070e-02 1.0307137e-02)	10	2.9404616e+02	(-1.0843538e-02 2.0786351e-02 7.0761401e-03)	11
4.2894e-06     	T              	2.9397236e+02	(7.8847983e-03 1.2382070e-02 1.0307137e-02)	10	2.9404662e+02	(-1.0843538e-02 2.0786351e-02 7.0761401e-03)	11
4.32696e-06    	T              	2.9397203e+02	(7.8847983e-03 1.2382070e-02 1.0307137e-02)	10	2.9404708e+02	(-1.0843538e-02 2.0786351e-02 7.0761401e-03)	11
4.36453e-06    	T              	2.9397171e+02	(7.8847983e-03 1.2382070e-02 1.0307137e-02)	10	2.9404754e+02	(-1.0843538e-02 2.0786351e-02 7.0761401e-03)	11
4.40209e-06    	T              	2.9397139e+02	(7.8847983e-03 1.2382070e-02 1.0307137e-02)	10	2.9404800e+02	(-1.0843538e-02 2.0786351e-02 7.0761401e-03)	11
4.43965e-06    	T              	2.9397107e+02	(7.8847983e-03 1.2382070e-02 1.0307137e-02)	10	2.9404846e+02	(-1.0843538e-02 2.0786351e-02 7.0761401e-03)	11
4.47722e-06    	T              	2.9397074e+02	(7.8847983e-03 1.2382070e-02 1.0307137e-02)	10	2.9404892e+02	(-1.0843538e-02 2.0786351e-02 7.0761401e-03)	11
4.51478e-06    	T              	2.9397042e+02	(7.8847983e-03 1.2382070e-02 1.0307137e-02)	10	2.9404938e+02	(-1.0843538e-02 2.0786351e-02 7.0761401e-03)	11
4.55234e-06    	T              	2.9397009e+02	(7.8847983e-03 1.2382070e-02 1.0307137e-02)	10	2.9404984e+02	(-1.0843538e-02 2.0786351e-02 7.0761401e-03)	11
4.5899e-06     	T              	2.9396977e+02	(7.8847983e-03 1.2382070e-02 1.0307137e-02)	10	2.9405030e+02	(-1.0843538e-02 2.0786351e-02 7.0761401e-03)	11
4.62747e-06    	T              	2.9396944e+02	(7.8847983e-03 1.2382070e-02 1.0307137e-02)	10	2.9405076e+02	(-1.0843538e-02 2.0786351e-02 7.0761401e-03)	11
4.66503e-06    	T              	2.9396911e+02	(7.8847983e-03 1.2382070e-02 1.0307137e-02)	10	2.9405122e+02	(-1.0843538e-02 2.0786351e-02 7.0761401e-03)	11
4.70259e-06    	T              	2.9396878e+02	(7.8847983e-03 1.2382070e-02 1.0307137e-02)	10	2.9405168e+02	(-1.0843538e-02 2.0786351e-02 7.0761401e-03)	11
4.74016e-06    	T              	2.9396845e+02	(7.8847983e-03 1.2382070e-02 1.0307137e-02)	10	2.9405213e+02	(-1.0843538e-02 2.0786351e-02 7.0761401e-03)	11
4.77772e-06    	T              	2.9396812e+02	(7.8847983e-03 1.2382070e-02 1.0307137e-02)	10	2.9405259e+02	(-1.0843538e-02 2.0786351e-02 7.0761401e-03)	11
4.81528e-06    	T              	2.9396779e+02	(7.8847983e-03 1.2382070e-02 1.0307137e-02)	10	2.9405305e+02	(-1.0843538e-02 2.0786351e-02 7.0761401e-03)	11
4.85285e-06    	T              	2.9396746e+02	(7.8847983e-03 1.2382070e-02 1.0307137e-02)	10	2.9405350e+02	(-1.0843538e-02 2.0786351e-02 7.0761401e-03)	11
4.89041e-06    	T              	2.9396713e+02	(7.8847983e-03 1.2382070e-02 1.0307137e-02)	10	2.9405396e+02	(-1.0843538e-02 2.0786351e-02 7.0761401e-03)	11
4.92797e-06    	T              	2.9396680e+02	(7.8847983e-03 1.2382070e-02 1.0307137e-02)	10	2.9405442e+02	(-1.0843538e-02 2.0786351e-02 7.0761401e-03)	11
4.96553e-06    	T              	2.9396646e+02	(7.8847983e-03 1.2382070e-02 1.0307137e-02)	10	2.9405487e+02	(-1.0843538e-02 2.0786351e-02 7.0761401e-03)	11
5.0031e-06     	T              	2.9396613e+02	(7.8847983e-03 1.2382070e-02 1.0307137e-02)	10	2.9405533e+02	(-1.0843538e-02 2.0786351e-02 7.0761401e-03)	11
5.04066e-06    	T              	2.9396580e+02	(7.8847983e-03 1.2382070e-02 1.0307137e-02)	10	2.9405578e+02	(-1.0843538e-02 2.0786351e-02 7.0761401e-03)	11
5.07822e-06    	T              	2.9396546e+02	(7.8847983e-03 1.2382070e-02 1.0307137e-02)	10	2.9405623e+02	(-1.0843538e-02 2.0786351e-02 7.0761401e-03)	11
5.11579e-06    	T              	2.9396513e+02	(7.8847983e-03 1.2382070e-02 1.0307137e-02)	10	2.9405667e+02	(-1.0843538e-02 2.0786351e-02 7.0761401e-03)	11
5.15335e-06    	T              	2.9396479e+02	(7.8847983e-03 1.2382070e-02 1.0307137e-02)	10	2.9405711e+02	(-1.0843538e-02 2.0786351e-02 7.0761401e-03)	11
5.19091e-06    	T              	2.9396445e+02	(7.8847983e-03 1.2382070e-02 1.0307137e-02)	10	2.9405755e+02	(-1.0843538e-02 2.0786351e-02 7.0761401e-03)	11
5.22848e-06    	T              	2.9396412e+02	(7.8847983e-03 1.2382070e-02 1.0307137e-02)	10	2.9405798e+02	(-1.0843538e-02 2.0786351e-02 7.0761401e-03)	11
5.26604e-06    	T              	2.9396378e+02	(7.8847983e-03 1.2382070e-02 1.0307137e-02)	10	2.9405841e+02	(-1.0843538e-02 2.0786351e-02 7.0761401e-03)	11
5.3036e-06     	T              	2.9396344e+02	(7.8847983e-03 1.2382070e-02 1.0307137e-02)	10	2.9405884e+02	(-1.0843538e-02 2.0786351e-02 7.0761401e-03)	11
5.34117e-06    	T              	2.9396311e+02	(7.8847983e-03 1.2382070e-02 1.0307137e-02)	10	2.9405927e+02	(-1.0843538e-02 2.0786351e-02 7.0761401e-03)	11
5.37873e-06    	T              	2.9396277e+02	(7.8847983e-03 1.2382070e-02 1.0307137e-02)	10	2.9405969e+02	(-1.0843538e-02 2.0786351e-02 7.0761401e-03)	11
5.41629e-06    	T              	2.9396243e+02	(7.8847983e-03 1.2382070e-02 1.0307137e-02)	10	2.9406012e+02	(-1.0843538e-02 2.0786351e-02 7.0761401e-03)	11
5.45385e-06    	T              	2.9396209e+02	(7.8847983e-03 1.2382070e-02 1.0307137e-02)	10	2.9406055e+02	(-1.0843538e-02 2.0786351e-02 7.0761401e-03)	11
5.49142e-06    	T              	2.9396175e+02	(7.8847983e-03 1.2382070e-02 1.0307137e-02)	10	2.9406098e+02	(-1.0843538e-02 2.0786351e-02 7.0761401e-03)	11
5.52898e-06    	T              	2.9396141e+02	(7.8847983e-03 1.2382070e-02 1.0307137e-02)	10	2.9406141e+02	(-1.0843538e-02 2.0786351e-02 7.0761401e-03)	11
5.56654e-06    	T              	2.9396107e+02	(7.8847983e-03 1.2382070e-02 1.0307137e-02)	10	2.9406184e+02	(-1.0843538e-02 2.0786351e-02 7.0761401e-03)	11
5.60411e-06    	T              	2.9396073e+02	(7.8847983e-03 1.2382070e-02 1.0307137e-02)	10	2.9406227e+02	(-1.0843538e-02 2.0786351e-02 7.0761401e-03)	11
5.64167e-06    	T              	2.9396039e+02	(7.8847983e-03 1.2382070e-02 1.0307137e-02)	10	2.9406271e+02	(-1.0843538e-02 2.0786351e-02 7.0761401e-03)	11
5.67923e-06    	T              	2.9396004e+02	(7.8847983e-03 1.2382070e-02 1.0307137e-02)	10	2.9406314e+02	(-1.0843538e-02 2.0786351e-02 7.0761401e-03)	11
5.7168e-06     	T              	2.9395970e+02	(7.8847983e-03 1.2382070e-02 1.0307137e-02)	10	2.9406357e+02	(-1.0843538e-02 2.0786351e-02 7.0761401e-03)	11
5.75436e-06    	T              	2.9395936e+02	(7.8847983e-03 1.2382070e-02 1.0307137e-02)	10	2.9406401e+02	(-1.0843538e-02 2.0786351e-02 7.0761401e-03)	11
5.79192e-06    	T              	2.9395902e+02	(7.8847983e-03 1.2382070e-02 1.0307137e-02)	10	2.9406444e+02	(-1.0843538e-02 2.0786351e-02 7.0761401e-03)	11
5.82948e-06    	T              	2.9395867e+02	(7.8847983e-03 1.2382070e-02 1.0307137e-02)	10	2.9406487e+02	(-1.0843538e-02 2.0786351e-02 7.0761401e-03)	11
5.86705e-06    	T              	2.9395833e+02	(7.8847983e-03 1.2382070e-02 1.0307137e-02)	10	2.9406538e+02	(-7.3072764e-03 2.3196010e-02 1.0492237e-02)	11
5.90461e-06    	T              	2.9395799e+02	(7.8847983e-03 1.2382070e-02 1.0307137e-02)	10	2.9406591e+02	(-7.3072764e-03 2.3196010e-02 1.0492237e-02)	11
5.94217e-06    	T              	2.9395764e+02	(7.8847983e-03 1.2382070e-02 1.0307137e-02)	10	2.9406643e+02	(-7.3072764e-03 2.3196010e-02 1.0492237e-02)	11
5.97974e-06    	T              	2.9395730e+02	(7.8847983e-03 1.2382070e-02 1.0307137e-02)	10	2.9406695e+02	(-7.3072764e-03 2.3196010e-02 1.0492237e-02)	11
6.0173e-06     	T              	2.9395695e+02	(7.8847983e-03 1.2382070e-02 1.0307137e-02)	10	2.9406747e+02	(-7.3072764e-03 2.3196010e-02 1.0492237e-02)	11
6.05486e-06    	T              	2.9395661e+02	(7.8847983e-03 1.2382070e-02 1.0307137e-02)	10	2.9406799e+02	(-7.3072764e-03 2.3196010e-02 1.0492237e-02)	11
6.09243e-06    	T              	2.9395626e+02	(7.8847983e-03 1.2382070e-02 1.0307137e-02)	10	2.9406850e+02	(-7.3072764e-03 2.3196010e-02 1.0492237e-02)	11
6.12999e-06    	T              	2.9395592e+02	(7.8847983e-03 1.2382070e-02 1.0307137e-02)	10	2.9406902e+02	(-7.3072764e-03 2.3196010e-02 1.0492237e-02)	11
6.16755e-06    	T              	2.9395557e+02	(7.8847983e-03 1.2382070e-02 1.0307137e-02)	10	2.9406953e+02	(-7.3072764e-03 2.3196010e-02 1.0492237e-02)	11
6.20511e-06    	T              	2.9395522e+02	(7.8847983e-03 1.2382070e-02 1.0307137e-02)	10	2.9407005e+02	(-7.3072764e-03 2.3196010e-02 1.0492237e-02)	11
6.24268e-06    	T              	2.9395488e+02	(7.8847983e-03 1.2382070e-02 1.0307137e-02)	10	2.9407056e+02	(-7.3072764e-03 2.3196010e-02 1.0492237e-02)	11
6.28024e-06    	T              	2.9395453e+02	(7.8847983e-03 1.2382070e-02 1.0307137e-02)	10	2.9407107e+02	(-7.3072764e-03 2.3196010e-02 1.0492237e-02)	11
6.3178e-06     	T              	2.9395418e+02	(7.8847983e-03 1.2382070e-02 1.0307137e-02)	10	2.9407158e+02	(-7.3072764e-03 2.3196010e-02 1.0492237e-02)	11
6.35537e-06    	T              	2.9395384e+02	(7.8847983e-03 1.2382070e-02 1.0307137e-02)	10	2.9407209e+02	(-7.3072764e-03 2.3196010e-02 1.0492237e-02)	11
6.39293e-06    	T              	2.9395349e+02	(7.8847983e-03 1.2382070e-02 1.0307137e-02)	10	2.9407260e+02	(-7.3072764e-03 2.3196010e-02 1.0492237e-02)	11
6.43049e-06    	T              	2.9395314e+02	(7.8847983e-03 1.2382070e-02 1.0307137e-02)	10	2.9407311e+02	(-7.3072764e-03 2.3196010e-02 1.0492237e-02)	11
6.46806e-06    	T              	2.9395279e+02	(7.8847983e-03 1.2382070e-02 1.0307137e-02)	10	2.9407361e+02	(-7.3072764e-03 2.3196010e-02 1.0492237e-02)	11
6.50562e-06    	T              	2.9395245e+02	(7.8847983e-03 1.2382070e-02 1.0307137e-02)	10	2.9407412e+02	(-7.3072764e-03 2.3196010e-02 1.0492237e-02)	11
6.54318e-06    	T              	2.9395210e+02	(7.8847983e-03 1.2382070e-02 1.0307137e-02)	10	2.9407462e+02	(-7.3072764e-03 2.3196010e-02 1.0492237e-02)	11
6.58075e-06    	T              	2.9395175e+02	(7.8847983e-03 1.2382070e-02 1.0307137e-02)	10	2.9407513e+02	(-7.3072764e-03 2.3196010e-02 1.0492237e-02)	11
6.61831e-06    	T              	2.9395140e+02	(7.8847983e-03 1.2382070e-02 1.0307137e-02)	10	2.9407565e+02	(-1.1337691e-02 2.2692657e-02 6.0567385e-03)	11
6.65587e-06    	T              	2.9395105e+02	(7.8847983e-03 1.2382070e-02 1.0307137e-02)	10	2.9407619e+02	(-1.1337691e-02 2.2692657e-02 6.0567385e-03)	11
6.69343e-06    	T              	2.9395070e+02	(7.8847983e-03 1.2382070e-02 1.0307137e-02)	10	2.9407672e+02	(-1.1337691e-02 2.2692657e-02 6.0567385e-03)	11
6.731e-06      	T              	2.9395035e+02	(7.8847983e-03 1.2382070e-02 1.0307137e-02)	10	2.9407726e+02	(-1.1337691e-02 2.2692657e-02 6.0567385e-03)	11
6.76856e-06    	T              	2.9395000e+02	(7.8847983e-03 1.2382070e-02 1.0307137e-02)	10	2.9407780e+02	(-1.1337691e-02 2.2692657e-02 6.0567385e-03)	11
6.80612e-06    	T              	2.9394965e+02	(7.8847983e-03 1.2382070e-02 1.0307137e-02)	10	2.9407833e+02	(-1.1337691e-02 2.2692657e-02 6.0567385e-03)	11
6.84369e-06    	T              	2.9394930e+02	(7.8847983e-03 1.2382070e-02 1.0307137e-02)	10	2.9407886e+02	(-1.1337691e-02 2.2692657e-02 6.0567385e-03)	11
6.88125e-06    	T              	2.9394895e+02	(7.8847983e-03 1.2382070e-02 1.0307137e-02)	10	2.9407940e+02	(-1.1337691e-02 2.2692657e-02 6.0567385e-03)	11
6.91881e-06    	T              	2.9394860e+02	(7.8847983e-03 1.2382070e-02 1.0307137e-02)	10	2.9407993e+02	(-1.1337691e-02 2.2692657e-02 6.0567385e-03)	11
6.95638e-06    	T              	2.9394825e+02	(7.8847983e-03 1.2382070e-02 1.0307137e-02)	10	2.9408046e+02	(-1.1337691e-02 2.2692657e-02 6.0567385e-03)	11
6.99394e-06    	T              	2.9394790e+02	(7.8847983e-03 1.2382070e-02 1.0307137e-02)	10	2.9408099e+02	(-1.1337691e-02 2.2692657e-02 6.0567385e-03)	11
7.0315e-06     	T              	2.9394755e+02	(7.8847983e-03 1.2382070e-02 1.0307137e-02)	10	2.9408152e+02	(-1.1337691e-02 2.2692657e-02 6.0567385e-03)	11
7.06906e-06    	T              	2.9394720e+02	(7.8847983e-03 1.2382070e-02 1.0307137e-02)	10	2.9408205e+02	(-1.1337691e-02 2.2692657e-02 6.0567385e-03)	11
7.10663e-06    	T              	2.9394685e+02	(7.8847983e-03 1.2382070e-02 1.0307137e-02)	10	2.9408257e+02	(-1.1337691e-02 2.2692657e-02 6.0567385e-03)	11
7.14419e-06    	T              	2.9394650e+02	(7.8847983e-03 1.2382070e-02 1.0307137e-02)	10	2.9408310e+02	(-1.1337691e-02 2.2692657e-02 6.0567385e-03)	11
7.18175e-06    	T              	2.9394615e+02	(7.8847983e-03 1.2382070e-02 1.0307137e-02)	10	2.9408363e+02	(-1.1337691e-02 2.2692657e-02 6.0567385e-03)	11
7.21932e-06    	T              	2.9394580e+02	(7.8847983e-03 1.2382070e-02 1.0307137e-02)	10	2.9408415e+02	(-1.1337691e-02 2.2692657e-02 6.0567385e-03)	11
7.25688e-06    	T              	2.9394545e+02	(7.8847983e-03 1.2382070e-02 1.0307137e-02)	10	2.9408467e+02	(-1.1337691e-02 2.2692657e-02 6.0567385e-03)	11