# Region type : patch inlet
# Faces  :     292
# Area   :     1.5721142e-05
# Time         	average(U)	average(p)	average(T)	average(rho)
0              	(0.0000000e+00 0.0000000e+00 0.0000000e+00)	1.1000000e+05	2.9400000e+02	1.3004948e+00
4.84042e-07    	(1.7384877e+01 -7.2466114e-02 -1.4945529e+01)	1.0957707e+05	2.9367316e+02	1.2969355e+00
8.88508e-07    	(1.7609728e+01 -7.3967461e-02 -1.5038142e+01)	1.0959417e+05	2.9368355e+02	1.2970926e+00
1.29297e-06    	(1.7288406e+01 -5.0666199e-02 -1.4731687e+01)	1.0961579e+05	2.9369733e+02	1.2972877e+00
1.69744e-06    	(1.6674366e+01 -5.1910017e-02 -1.4217733e+01)	1.0964590e+05	2.9371760e+02	1.2975545e+00
2.10191e-06    	(1.6181201e+01 -2.4194839e-02 -1.3789682e+01)	1.0966950e+05	2.9373288e+02	1.2977662e+00
2.50637e-06    	(1.5851914e+01 -6.4673437e-03 -1.3471711e+01)	1.0968663e+05	2.9374321e+02	1.2979233e+00
2.91084e-06    	(1.5650053e+01 -4.0492317e-03 -1.3278232e+01)	1.0969840e+05	2.9374944e+02	1.2980350e+00
3.3153e-06     	(1.5467386e+01 -4.4934429e-04 -1.3124080e+01)	1.0970903e+05	2.9375479e+02	1.2981371e+00
3.71977e-06    	(1.5348317e+01 -8.3131709e-03 -1.3037401e+01)	1.0971699e+05	2.9375810e+02	1.2982167e+00
4.12423e-06    	(1.5319905e+01 -1.4072083e-02 -1.3031051e+01)	1.0972118e+05	2.9375853e+02	1.2982643e+00
4.5287e-06     	(1.5316869e+01 -9.5788660e-03 -1.3039151e+01)	1.0972462e+05	2.9375839e+02	1.2983057e+00
4.93315e-06    	(1.5365690e+01 -5.7179070e-03 -1.3083038e+01)	1.0972643e+05	2.9375700e+02	1.2983333e+00
5.33759e-06    	(1.5472873e+01 -1.5320295e-02 -1.3172533e+01)	1.0972613e+05	2.9375399e+02	1.2983430e+00
5.74206e-06    	(1.5615809e+01 -1.7143473e-02 -1.3295080e+01)	1.0972430e+05	2.9374981e+02	1.2983398e+00
6.14653e-06    	(1.5818852e+01 -1.3149620e-02 -1.3470917e+01)	1.0971992e+05	2.9374369e+02	1.2983151e+00
6.55104e-06    	(1.6144475e+01 -2.2990586e-02 -1.3750355e+01)	1.0971023e+05	2.9373350e+02	1.2982454e+00
6.95558e-06    	(1.6559465e+01 -2.1979241e-02 -1.4103719e+01)	1.0969631e+05	2.9372007e+02	1.2981400e+00
7.36028e-06    	(1.7074459e+01 -2.1241704e-02 -1.4539626e+01)	1.0967722e+05	2.9370268e+02	1.2979909e+00
7.76497e-06    	(1.7676516e+01 -2.6040564e-02 -1.5048142e+01)	1.0965306e+05	2.9368142e+02	1.2977989e+00
8.16964e-06    	(1.8309253e+01 -2.0046050e-02 -1.5584070e+01)	1.0962615e+05	2.9365804e+02	1.2975836e+00
8.57432e-06    	(1.9004734e+01 -2.3834698e-02 -1.6173238e+01)	1.0959478e+05	2.9363123e+02	1.2973306e+00
8.979e-06      	(1.9730772e+01 -2.3547157e-02 -1.6789476e+01)	1.0956033e+05	2.9360207e+02	1.2970515e+00
9.38367e-06    	(2.0488517e+01 -2.3880836e-02 -1.7432551e+01)	1.0952262e+05	2.9357040e+02	1.2967448e+00
9.78834e-06    	(2.1259081e+01 -2.8932599e-02 -1.8088312e+01)	1.0948253e+05	2.9353690e+02	1.2964179e+00
1.0193e-05     	(2.2014347e+01 -3.5042696e-02 -1.8732935e+01)	1.0944160e+05	2.9350274e+02	1.2960838e+00
1.05977e-05    	(2.2756486e+01 -4.4695311e-02 -1.9365926e+01)	1.0939987e+05	2.9346795e+02	1.2957429e+00
1.10023e-05    	(2.3463413e+01 -5.3982242e-02 -1.9968660e+01)	1.0935881e+05	2.9343368e+02	1.2954076e+00
1.1407e-05     	(2.4132375e+01 -6.3492821e-02 -2.0538171e+01)	1.0931885e+05	2.9340023e+02	1.2950816e+00
1.18117e-05    	(2.4757929e+01 -7.2470479e-02 -2.1069922e+01)	1.0928061e+05	2.9336809e+02	1.2947700e+00
1.22164e-05    	(2.5331454e+01 -8.1326878e-02 -2.1556632e+01)	1.0924490e+05	2.9333789e+02	1.2944799e+00
1.26212e-05    	(2.5848522e+01 -8.9047467e-02 -2.1995364e+01)	1.0921228e+05	2.9331006e+02	1.2942159e+00
1.30259e-05    	(2.6306800e+01 -9.5319724e-02 -2.2384153e+01)	1.0918320e+05	2.9328494e+02	1.2939818e+00
1.34308e-05    	(2.6710333e+01 -9.9892072e-02 -2.2726769e+01)	1.0915764e+05	2.9326252e+02	1.2937775e+00
1.38357e-05    	(2.7064330e+01 -1.0431496e-01 -2.3028118e+01)	1.0913543e+05	2.9324268e+02	1.2936016e+00
1.42406e-05    	(2.7381089e+01 -1.0846378e-01 -2.3298349e+01)	1.0911584e+05	2.9322484e+02	1.2934479e+00
1.46455e-05    	(2.7670018e+01 -1.1187512e-01 -2.3544699e+01)	1.0909832e+05	2.9320860e+02	1.2933117e+00
1.50504e-05    	(2.7941753e+01 -1.1488704e-01 -2.3776326e+01)	1.0908212e+05	2.9319337e+02	1.2931867e+00
1.54554e-05    	(2.8206884e+01 -1.1719797e-01 -2.4002768e+01)	1.0906639e+05	2.9317851e+02	1.2930657e+00
1.58603e-05    	(2.8472770e+01 -1.1807627e-01 -2.4230081e+01)	1.0905055e+05	2.9316356e+02	1.2929437e+00
1.62652e-05    	(2.8744829e+01 -1.1718765e-01 -2.4462537e+01)	1.0903413e+05	2.9314817e+02	1.2928168e+00
1.667e-05      	(2.9028307e+01 -1.1475174e-01 -2.4704279e+01)	1.0901663e+05	2.9313195e+02	1.2926808e+00
1.70749e-05    	(2.9325500e+01 -1.1115944e-01 -2.4957339e+01)	1.0899777e+05	2.9311467e+02	1.2925332e+00
1.74798e-05    	(2.9638209e+01 -1.0685561e-01 -2.5223283e+01)	1.0897730e+05	2.9309616e+02	1.2923720e+00
1.78846e-05    	(2.9966013e+01 -1.0191893e-01 -2.5501803e+01)	1.0895523e+05	2.9307640e+02	1.2921971e+00
1.82895e-05    	(3.0306440e+01 -9.6784824e-02 -2.5791098e+01)	1.0893168e+05	2.9305551e+02	1.2920097e+00
1.86944e-05    	(3.0655113e+01 -9.1936028e-02 -2.6087612e+01)	1.0890697e+05	2.9303372e+02	1.2918125e+00
1.90992e-05    	(3.1007843e+01 -8.7522097e-02 -2.6387618e+01)	1.0888148e+05	2.9301132e+02	1.2916085e+00
1.9504e-05     	(3.1360509e+01 -8.3872290e-02 -2.6687580e+01)	1.0885556e+05	2.9298858e+02	1.2914009e+00
1.99089e-05    	(3.1709433e+01 -8.0906572e-02 -2.6984360e+01)	1.0882957e+05	2.9296579e+02	1.2911927e+00
2.03138e-05    	(3.2052314e+01 -7.8667510e-02 -2.7276092e+01)	1.0880376e+05	2.9294313e+02	1.2909860e+00
2.07188e-05    	(3.2387982e+01 -7.7154235e-02 -2.7561717e+01)	1.0877831e+05	2.9292076e+02	1.2907824e+00
2.11238e-05    	(3.2715236e+01 -7.6442859e-02 -2.7840021e+01)	1.0875342e+05	2.9289880e+02	1.2905835e+00
2.15287e-05    	(3.3033381e+01 -7.6460241e-02 -2.8110552e+01)	1.0872917e+05	2.9287734e+02	1.2903899e+00
2.19337e-05    	(3.3343933e+01 -7.7001606e-02 -2.8374964e+01)	1.0870545e+05	2.9285629e+02	1.2902010e+00
2.23387e-05    	(3.3648799e+01 -7.8103241e-02 -2.8634885e+01)	1.0868213e+05	2.9283554e+02	1.2900153e+00
2.27436e-05    	(3.3951090e+01 -7.9879497e-02 -2.8892713e+01)	1.0865894e+05	2.9281489e+02	1.2898308e+00
2.31486e-05    	(3.4253792e+01 -8.2190699e-02 -2.9150777e+01)	1.0863560e+05	2.9279413e+02	1.2896449e+00
2.35535e-05    	(3.4559384e+01 -8.4829714e-02 -2.9411163e+01)	1.0861184e+05	2.9277304e+02	1.2894556e+00
2.39585e-05    	(3.4870652e+01 -8.7527513e-02 -2.9676218e+01)	1.0858737e+05	2.9275140e+02	1.2892601e+00
2.43634e-05    	(3.5187714e+01 -9.0322411e-02 -2.9946301e+01)	1.0856211e+05	2.9272915e+02	1.2890579e+00
2.47684e-05    	(3.5512148e+01 -9.2993962e-02 -3.0222655e+01)	1.0853587e+05	2.9270614e+02	1.2888474e+00
2.51733e-05    	(3.5844477e+01 -9.5458489e-02 -3.0505556e+01)	1.0850856e+05	2.9268230e+02	1.2886278e+00
2.55783e-05    	(3.6184029e+01 -9.7631500e-02 -3.0794301e+01)	1.0848020e+05	2.9265765e+02	1.2883993e+00
2.59832e-05    	(3.6529301e+01 -9.9538103e-02 -3.1087672e+01)	1.0845091e+05	2.9263227e+02	1.2881628e+00
2.63881e-05    	(3.6879336e+01 -1.0112538e-01 -3.1384862e+01)	1.0842076e+05	2.9260622e+02	1.2879190e+00
2.6793e-05     	(3.7231319e+01 -1.0227388e-01 -3.1683594e+01)	1.0839000e+05	2.9257970e+02	1.2876699e+00
2.71979e-05    	(3.7581979e+01 -1.0323320e-01 -3.1981194e+01)	1.0835894e+05	2.9255293e+02	1.2874183e+00
2.76029e-05    	(3.7927868e+01 -1.0409312e-01 -3.2274700e+01)	1.0832795e+05	2.9252621e+02	1.2871672e+00
2.80079e-05    	(3.8265595e+01 -1.0470756e-01 -3.2561244e+01)	1.0829738e+05	2.9249981e+02	1.2869197e+00
2.84129e-05    	(3.8591784e+01 -1.0522324e-01 -3.2838078e+01)	1.0826761e+05	2.9247402e+02	1.2866790e+00
2.88179e-05    	(3.8903303e+01 -1.0566256e-01 -3.3102483e+01)	1.0823904e+05	2.9244915e+02	1.2864483e+00
2.92229e-05    	(3.9196821e+01 -1.0609181e-01 -3.3351543e+01)	1.0821207e+05	2.9242552e+02	1.2862313e+00
2.96279e-05    	(3.9470255e+01 -1.0643344e-01 -3.3583544e+01)	1.0818699e+05	2.9240335e+02	1.2860303e+00
3.0033e-05     	(3.9722847e+01 -1.0692268e-01 -3.3797951e+01)	1.0816396e+05	2.9238275e+02	1.2858467e+00
3.0438e-05     	(3.9954528e+01 -1.0759306e-01 -3.3994742e+01)	1.0814305e+05	2.9236380e+02	1.2856811e+00
3.0843e-05     	(4.0165854e+01 -1.0841841e-01 -3.4174334e+01)	1.0812426e+05	2.9234649e+02	1.2855336e+00
3.1248e-05     	(4.0358880e+01 -1.0934101e-01 -3.4338412e+01)	1.0810740e+05	2.9233068e+02	1.2854024e+00
3.1653e-05     	(4.0536929e+01 -1.1030308e-01 -3.4489850e+01)	1.0809215e+05	2.9231611e+02	1.2852849e+00
3.20581e-05    	(4.0704402e+01 -1.1123009e-01 -3.4632522e+01)	1.0807806e+05	2.9230244e+02	1.2851773e+00
3.24631e-05    	(4.0867654e+01 -1.1223930e-01 -3.4771477e+01)	1.0806447e+05	2.9228916e+02	1.2850739e+00
3.28682e-05    	(4.1033118e+01 -1.1333429e-01 -3.4912087e+01)	1.0805068e+05	2.9227573e+02	1.2849688e+00
3.32733e-05    	(4.1207370e+01 -1.1451111e-01 -3.5059945e+01)	1.0803597e+05	2.9226158e+02	1.2848559e+00
3.36783e-05    	(4.1395954e+01 -1.1568972e-01 -3.5219793e+01)	1.0801970e+05	2.9224622e+02	1.2847297e+00
3.40834e-05    	(4.1603032e+01 -1.1683410e-01 -3.5395246e+01)	1.0800136e+05	2.9222927e+02	1.2845860e+00
3.44885e-05    	(4.1831258e+01 -1.1790544e-01 -3.5588781e+01)	1.0798059e+05	2.9221043e+02	1.2844215e+00
3.48935e-05    	(4.2080454e+01 -1.1884945e-01 -3.5800366e+01)	1.0795731e+05	2.9218964e+02	1.2842357e+00
3.52986e-05    	(4.2346806e+01 -1.1976617e-01 -3.6026770e+01)	1.0793186e+05	2.9216717e+02	1.2840315e+00
3.57037e-05    	(4.2621137e+01 -1.2081807e-01 -3.6260203e+01)	1.0790521e+05	2.9214376e+02	1.2838170e+00
3.61088e-05    	(4.2887180e+01 -1.2228560e-01 -3.6486744e+01)	1.0787914e+05	2.9212079e+02	1.2836073e+00
3.65139e-05    	(4.3121191e+01 -1.2507144e-01 -3.6685959e+01)	1.0785625e+05	2.9210028e+02	1.2834248e+00
3.6919e-05     	(4.3295984e+01 -1.2970917e-01 -3.6835035e+01)	1.0783961e+05	2.9208460e+02	1.2832952e+00
3.73241e-05    	(4.3390126e+01 -1.3435069e-01 -3.6915746e+01)	1.0783164e+05	2.9207565e+02	1.2832395e+00
3.77292e-05    	(4.3384865e+01 -1.3910659e-01 -3.6911731e+01)	1.0783460e+05	2.9207515e+02	1.2832766e+00
3.81343e-05    	(4.3270585e+01 -1.4334432e-01 -3.6814946e+01)	1.0784964e+05	2.9208402e+02	1.2834165e+00
3.85394e-05    	(4.3048182e+01 -1.4540215e-01 -3.6626147e+01)	1.0787680e+05	2.9210228e+02	1.2836595e+00
3.89445e-05    	(4.2731768e+01 -1.4575039e-01 -3.6356568e+01)	1.0791464e+05	2.9212881e+02	1.2839933e+00
3.93496e-05    	(4.2344511e+01 -1.4433117e-01 -3.6025927e+01)	1.0796057e+05	2.9216162e+02	1.2843960e+00
3.97547e-05    	(4.1912024e+01 -1.4083145e-01 -3.5656657e+01)	1.0801170e+05	2.9219846e+02	1.2848429e+00
4.01598e-05    	(4.1465010e+01 -1.3567611e-01 -3.5274988e+01)	1.0806455e+05	2.9223662e+02	1.2853044e+00
4.05649e-05    	(4.1035450e+01 -1.2951071e-01 -3.4908471e+01)	1.0811555e+05	2.9227335e+02	1.2857502e+00
4.097e-05      	(4.0651704e+01 -1.2278178e-01 -3.4581461e+01)	1.0816163e+05	2.9230626e+02	1.2861540e+00
4.13751e-05    	(4.0335981e+01 -1.1609948e-01 -3.4312665e+01)	1.0820040e+05	2.9233353e+02	1.2864959e+00
4.17802e-05    	(4.0106382e+01 -1.1059153e-01 -3.4117788e+01)	1.0822996e+05	2.9235365e+02	1.2867593e+00
4.21853e-05    	(3.9972941e+01 -1.0665339e-01 -3.4005512e+01)	1.0824920e+05	2.9236579e+02	1.2869351e+00
4.25904e-05    	(3.9931889e+01 -1.0423143e-01 -3.3972165e+01)	1.0825853e+05	2.9237027e+02	1.2870267e+00
4.29955e-05    	(3.9976404e+01 -1.0342550e-01 -3.4011014e+01)	1.0825870e+05	2.9236767e+02	1.2870403e+00
4.34006e-05    	(4.0101226e+01 -1.0378987e-01 -3.4117840e+01)	1.0825019e+05	2.9235835e+02	1.2869803e+00
4.38057e-05    	(4.0294056e+01 -1.0515100e-01 -3.4282347e+01)	1.0823422e+05	2.9234325e+02	1.2868567e+00
4.42108e-05    	(4.0538304e+01 -1.0763390e-01 -3.4490257e+01)	1.0821244e+05	2.9232366e+02	1.2866838e+00
4.46159e-05    	(4.0811739e+01 -1.1041601e-01 -3.4722275e+01)	1.0818715e+05	2.9230135e+02	1.2864810e+00
4.5021e-05     	(4.1088410e+01 -1.1302273e-01 -3.4956356e+01)	1.0816110e+05	2.9227845e+02	1.2862717e+00
4.54261e-05    	(4.1342986e+01 -1.1522825e-01 -3.5171002e+01)	1.0813707e+05	2.9225709e+02	1.2860795e+00
4.58312e-05    	(4.1555554e+01 -1.1703764e-01 -3.5349653e+01)	1.0811732e+05	2.9223905e+02	1.2859237e+00
4.62363e-05    	(4.1712901e+01 -1.1818790e-01 -3.5481140e+01)	1.0810341e+05	2.9222552e+02	1.2858176e+00
4.66415e-05    	(4.1808069e+01 -1.1839852e-01 -3.5559929e+01)	1.0809622e+05	2.9221718e+02	1.2857684e+00
4.70466e-05    	(4.1838429e+01 -1.1780726e-01 -3.5584010e+01)	1.0809613e+05	2.9221434e+02	1.2857798e+00
4.74517e-05    	(4.1803362e+01 -1.1642146e-01 -3.5553047e+01)	1.0810331e+05	2.9221713e+02	1.2858529e+00
4.78568e-05    	(4.1708472e+01 -1.1386465e-01 -3.5471967e+01)	1.0811716e+05	2.9222508e+02	1.2859828e+00
4.82619e-05    	(4.1566033e+01 -1.1091058e-01 -3.5351108e+01)	1.0813632e+05	2.9223714e+02	1.2861578e+00
4.8667e-05     	(4.1393028e+01 -1.0789727e-01 -3.5204753e+01)	1.0815890e+05	2.9225185e+02	1.2863618e+00
4.90721e-05    	(4.1209068e+01 -1.0524694e-01 -3.5049517e+01)	1.0818269e+05	2.9226749e+02	1.2865763e+00
4.94772e-05    	(4.1034378e+01 -1.0336369e-01 -3.4902355e+01)	1.0820550e+05	2.9228238e+02	1.2867823e+00
4.98823e-05    	(4.0888478e+01 -1.0246777e-01 -3.4779956e+01)	1.0822519e+05	2.9229485e+02	1.2869618e+00
5.02874e-05    	(4.0786108e+01 -1.0237672e-01 -3.4694691e+01)	1.0824017e+05	2.9230367e+02	1.2871013e+00
5.06925e-05    	(4.0738429e+01 -1.0319297e-01 -3.4655673e+01)	1.0824927e+05	2.9230796e+02	1.2871908e+00
5.10977e-05    	(4.0750882e+01 -1.0486676e-01 -3.4667306e+01)	1.0825192e+05	2.9230725e+02	1.2872255e+00
5.15028e-05    	(4.0826434e+01 -1.0725502e-01 -3.4732140e+01)	1.0824777e+05	2.9230129e+02	1.2872024e+00
5.19079e-05    	(4.0961164e+01 -1.1064819e-01 -3.4847007e+01)	1.0823720e+05	2.9229037e+02	1.2871247e+00
5.2313e-05     	(4.1147089e+01 -1.1521826e-01 -3.5005322e+01)	1.0822098e+05	2.9227508e+02	1.2869990e+00
5.27181e-05    	(4.1373866e+01 -1.2047028e-01 -3.5198346e+01)	1.0820017e+05	2.9225623e+02	1.2868342e+00
5.31232e-05    	(4.1628341e+01 -1.2577723e-01 -3.5414421e+01)	1.0817615e+05	2.9223490e+02	1.2866421e+00
5.35284e-05    	(4.1896349e+01 -1.3046136e-01 -3.5641535e+01)	1.0815044e+05	2.9221226e+02	1.2864356e+00
5.39335e-05    	(4.2162638e+01 -1.3424280e-01 -3.5866926e+01)	1.0812466e+05	2.9218957e+02	1.2862285e+00
5.43386e-05    	(4.2414502e+01 -1.3674588e-01 -3.6079858e+01)	1.0810021e+05	2.9216790e+02	1.2860328e+00
5.47437e-05    	(4.2642807e+01 -1.3779026e-01 -3.6272388e+01)	1.0807818e+05	2.9214809e+02	1.2858575e+00
5.51488e-05    	(4.2841378e+01 -1.3747616e-01 -3.6439248e+01)	1.0805932e+05	2.9213072e+02	1.2857091e+00
5.55539e-05    	(4.3006887e+01 -1.3608165e-01 -3.6578029e+01)	1.0804404e+05	2.9211613e+02	1.2855912e+00
5.59591e-05    	(4.3139995e+01 -1.3374729e-01 -3.6689367e+01)	1.0803236e+05	2.9210432e+02	1.2855039e+00
5.63642e-05    	(4.3242450e+01 -1.3060131e-01 -3.6774788e+01)	1.0802415e+05	2.9209520e+02	1.2854462e+00
5.67693e-05    	(4.3316156e+01 -1.2673984e-01 -3.6835941e+01)	1.0801923e+05	2.9208863e+02	1.2854164e+00
5.71744e-05    	(4.3363847e+01 -1.2248987e-01 -3.6875429e+01)	1.0801732e+05	2.9208439e+02	1.2854122e+00
5.75795e-05    	(4.3388316e+01 -1.1807184e-01 -3.6896007e+01)	1.0801809e+05	2.9208223e+02	1.2854309e+00
5.79846e-05    	(4.3392364e+01 -1.1403856e-01 -3.6899532e+01)	1.0802129e+05	2.9208195e+02	1.2854702e+00
5.83898e-05    	(4.3378021e+01 -1.1100818e-01 -3.6887653e+01)	1.0802670e+05	2.9208338e+02	1.2855284e+00
5.87949e-05    	(4.3348867e+01 -1.0901337e-01 -3.6863624e+01)	1.0803387e+05	2.9208618e+02	1.2856015e+00
5.92e-05       	(4.3309143e+01 -1.0788050e-01 -3.6831048e+01)	1.0804230e+05	2.9208995e+02	1.2856853e+00
5.96051e-05    	(4.3263481e+01 -1.0774478e-01 -3.6793689e+01)	1.0805143e+05	2.9209427e+02	1.2857751e+00
6.00102e-05    	(4.3217797e+01 -1.0857777e-01 -3.6756551e+01)	1.0806054e+05	2.9209858e+02	1.2858648e+00
6.04153e-05    	(4.3178171e+01 -1.1029564e-01 -3.6724595e+01)	1.0806894e+05	2.9210233e+02	1.2859484e+00
6.08204e-05    	(4.3150720e+01 -1.1274414e-01 -3.6702934e+01)	1.0807590e+05	2.9210496e+02	1.2860197e+00
6.12256e-05    	(4.3141789e+01 -1.1575933e-01 -3.6696721e+01)	1.0808069e+05	2.9210592e+02	1.2860725e+00
6.16307e-05    	(4.3156848e+01 -1.1901178e-01 -3.6710414e+01)	1.0808268e+05	2.9210471e+02	1.2861016e+00
6.20358e-05    	(4.3199060e+01 -1.2215614e-01 -3.6746716e+01)	1.0808153e+05	2.9210106e+02	1.2861039e+00
6.24409e-05    	(4.3270937e+01 -1.2492645e-01 -3.6807747e+01)	1.0807694e+05	2.9209475e+02	1.2860770e+00
6.2846e-05     	(4.3372066e+01 -1.2735253e-01 -3.6893531e+01)	1.0806894e+05	2.9208580e+02	1.2860209e+00
6.32511e-05    	(4.3500053e+01 -1.2946788e-01 -3.7002159e+01)	1.0805777e+05	2.9207440e+02	1.2859381e+00
6.36563e-05    	(4.3651487e+01 -1.3116526e-01 -3.7130457e+01)	1.0804385e+05	2.9206087e+02	1.2858317e+00
6.40614e-05    	(4.3820845e+01 -1.3235316e-01 -3.7273603e+01)	1.0802780e+05	2.9204568e+02	1.2857072e+00
6.44665e-05    	(4.4001063e+01 -1.3302588e-01 -3.7425685e+01)	1.0801042e+05	2.9202947e+02	1.2855714e+00
6.48716e-05    	(4.4183960e+01 -1.3314697e-01 -3.7579965e+01)	1.0799265e+05	2.9201296e+02	1.2854323e+00
6.52767e-05    	(4.4361112e+01 -1.3287179e-01 -3.7729349e+01)	1.0797548e+05	2.9199690e+02	1.2852982e+00
6.56819e-05    	(4.4523900e+01 -1.3231870e-01 -3.7866463e+01)	1.0795993e+05	2.9198210e+02	1.2851780e+00
6.6087e-05     	(4.4665470e+01 -1.3169218e-01 -3.7985776e+01)	1.0794681e+05	2.9196918e+02	1.2850784e+00
6.64921e-05    	(4.4780288e+01 -1.3127992e-01 -3.8082676e+01)	1.0793678e+05	2.9195865e+02	1.2850051e+00
6.68972e-05    	(4.4864720e+01 -1.3119710e-01 -3.8154023e+01)	1.0793031e+05	2.9195089e+02	1.2849621e+00
6.73024e-05    	(4.4917379e+01 -1.3149358e-01 -3.8198587e+01)	1.0792762e+05	2.9194604e+02	1.2849513e+00
6.77075e-05    	(4.4938704e+01 -1.3218744e-01 -3.8217007e+01)	1.0792867e+05	2.9194410e+02	1.2849722e+00
6.81126e-05    	(4.4931010e+01 -1.3313075e-01 -3.8211161e+01)	1.0793319e+05	2.9194485e+02	1.2850228e+00
6.85178e-05    	(4.4896771e+01 -1.3408553e-01 -3.8182946e+01)	1.0794092e+05	2.9194808e+02	1.2851007e+00
6.89229e-05    	(4.4837482e+01 -1.3487508e-01 -3.8133483e+01)	1.0795166e+05	2.9195365e+02	1.2852042e+00
6.9328e-05     	(4.4754635e+01 -1.3529417e-01 -3.8064183e+01)	1.0796522e+05	2.9196140e+02	1.2853317e+00
6.97332e-05    	(4.4649146e+01 -1.3521497e-01 -3.7975990e+01)	1.0798142e+05	2.9197120e+02	1.2854817e+00
7.01383e-05    	(4.4522076e+01 -1.3450605e-01 -3.7869911e+01)	1.0800010e+05	2.9198291e+02	1.2856528e+00
7.05434e-05    	(4.4375026e+01 -1.3308515e-01 -3.7747099e+01)	1.0802104e+05	2.9199636e+02	1.2858431e+00
7.09486e-05    	(4.4209960e+01 -1.3104210e-01 -3.7608940e+01)	1.0804397e+05	2.9201136e+02	1.2860504e+00
7.13537e-05    	(4.4030088e+01 -1.2857579e-01 -3.7457963e+01)	1.0806851e+05	2.9202759e+02	1.2862712e+00
7.17588e-05    	(4.3840171e+01 -1.2600270e-01 -3.7298067e+01)	1.0809407e+05	2.9204461e+02	1.2865008e+00
7.2164e-05     	(4.3646132e+01 -1.2355914e-01 -3.7134104e+01)	1.0811997e+05	2.9206190e+02	1.2867333e+00
7.25691e-05    	(4.3453902e+01 -1.2156728e-01 -3.6970969e+01)	1.0814555e+05	2.9207891e+02	1.2869629e+00
7.29742e-05    	(4.3269485e+01 -1.2024538e-01 -3.6813647e+01)	1.0817011e+05	2.9209515e+02	1.2871840e+00
7.33794e-05    	(4.3098304e+01 -1.1967890e-01 -3.6666765e+01)	1.0819309e+05	2.9211015e+02	1.2873915e+00
7.37845e-05    	(4.2944761e+01 -1.1980147e-01 -3.6534333e+01)	1.0821400e+05	2.9212355e+02	1.2875815e+00
7.41897e-05    	(4.2811554e+01 -1.2044726e-01 -3.6418947e+01)	1.0823257e+05	2.9213514e+02	1.2877515e+00
7.45948e-05    	(4.2699737e+01 -1.2150800e-01 -3.6321769e+01)	1.0824872e+05	2.9214486e+02	1.2879009e+00
7.5e-05        	(4.2609955e+01 -1.2288562e-01 -3.6243454e+01)	1.0826241e+05	2.9215268e+02	1.2880295e+00
7.54051e-05    	(4.2542601e+01 -1.2420962e-01 -3.6184485e+01)	1.0827362e+05	2.9215859e+02	1.2881369e+00
7.58103e-05    	(4.2496843e+01 -1.2530464e-01 -3.6144176e+01)	1.0828246e+05	2.9216266e+02	1.2882242e+00
7.62154e-05    	(4.2471923e+01 -1.2629198e-01 -3.6121875e+01)	1.0828902e+05	2.9216497e+02	1.2882921e+00
7.66206e-05    	(4.2467941e+01 -1.2695677e-01 -3.6117548e+01)	1.0829329e+05	2.9216552e+02	1.2883405e+00
7.70257e-05    	(4.2484921e+01 -1.2714477e-01 -3.6131118e+01)	1.0829526e+05	2.9216430e+02	1.2883694e+00
7.74309e-05    	(4.2523199e+01 -1.2708215e-01 -3.6162842e+01)	1.0829489e+05	2.9216126e+02	1.2883784e+00
7.7836e-05     	(4.2582557e+01 -1.2683687e-01 -3.6212640e+01)	1.0829218e+05	2.9215642e+02	1.2883675e+00
7.82412e-05    	(4.2663839e+01 -1.2617728e-01 -3.6281316e+01)	1.0828701e+05	2.9214968e+02	1.2883356e+00
7.86463e-05    	(4.2766694e+01 -1.2515941e-01 -3.6368544e+01)	1.0827938e+05	2.9214104e+02	1.2882829e+00
7.90515e-05    	(4.2889682e+01 -1.2382432e-01 -3.6473107e+01)	1.0826941e+05	2.9213059e+02	1.2882102e+00
7.94566e-05    	(4.3030187e+01 -1.2218926e-01 -3.6592759e+01)	1.0825735e+05	2.9211853e+02	1.2881198e+00
7.98618e-05    	(4.3184935e+01 -1.2028490e-01 -3.6724676e+01)	1.0824356e+05	2.9210512e+02	1.2880146e+00
8.02669e-05    	(4.3349104e+01 -1.1825468e-01 -3.6864784e+01)	1.0822857e+05	2.9209079e+02	1.2878992e+00
8.0672e-05     	(4.3516375e+01 -1.1629813e-01 -3.7007708e+01)	1.0821310e+05	2.9207609e+02	1.2877797e+00
8.10772e-05    	(4.3679705e+01 -1.1452566e-01 -3.7147489e+01)	1.0819796e+05	2.9206164e+02	1.2876630e+00
8.14823e-05    	(4.3831822e+01 -1.1290756e-01 -3.7277834e+01)	1.0818400e+05	2.9204811e+02	1.2875564e+00
8.18874e-05    	(4.3965791e+01 -1.1141797e-01 -3.7392843e+01)	1.0817206e+05	2.9203612e+02	1.2874668e+00
8.22926e-05    	(4.4075416e+01 -1.1015307e-01 -3.7487124e+01)	1.0816287e+05	2.9202627e+02	1.2874007e+00
8.26977e-05    	(4.4155480e+01 -1.0921432e-01 -3.7556289e+01)	1.0815705e+05	2.9201902e+02	1.2873633e+00
8.31028e-05    	(4.4202471e+01 -1.0851671e-01 -3.7597555e+01)	1.0815503e+05	2.9201471e+02	1.2873583e+00
8.3508e-05     	(4.4215964e+01 -1.0811021e-01 -3.7610400e+01)	1.0815690e+05	2.9201340e+02	1.2873862e+00
8.39131e-05    	(4.4198647e+01 -1.0785255e-01 -3.7596737e+01)	1.0816237e+05	2.9201487e+02	1.2874449e+00
8.43182e-05    	(4.4156165e+01 -1.0769567e-01 -3.7561408e+01)	1.0817079e+05	2.9201863e+02	1.2875286e+00
8.47234e-05    	(4.4096223e+01 -1.0765417e-01 -3.7511196e+01)	1.0818124e+05	2.9202395e+02	1.2876295e+00
8.51285e-05    	(4.4027323e+01 -1.0779376e-01 -3.7453457e+01)	1.0819270e+05	2.9203005e+02	1.2877391e+00
8.55336e-05    	(4.3958198e+01 -1.0827370e-01 -3.7395139e+01)	1.0820420e+05	2.9203618e+02	1.2878491e+00
8.59388e-05    	(4.3897500e+01 -1.0905107e-01 -3.7343660e+01)	1.0821474e+05	2.9204157e+02	1.2879508e+00
8.63439e-05    	(4.3852782e+01 -1.1010272e-01 -3.7305574e+01)	1.0822345e+05	2.9204555e+02	1.2880370e+00
8.6749e-05     	(4.3828999e+01 -1.1136217e-01 -3.7285166e+01)	1.0822976e+05	2.9204767e+02	1.2881027e+00
8.71542e-05    	(4.3828053e+01 -1.1286934e-01 -3.7284154e+01)	1.0823345e+05	2.9204776e+02	1.2881462e+00
8.75593e-05    	(4.3849102e+01 -1.1476833e-01 -3.7301940e+01)	1.0823461e+05	2.9204591e+02	1.2881682e+00
8.79644e-05    	(4.3889361e+01 -1.1694712e-01 -3.7336325e+01)	1.0823354e+05	2.9204234e+02	1.2881713e+00
8.83696e-05    	(4.3943830e+01 -1.1918504e-01 -3.7383122e+01)	1.0823083e+05	2.9203749e+02	1.2881603e+00
8.87747e-05    	(4.4006117e+01 -1.2134330e-01 -3.7436882e+01)	1.0822720e+05	2.9203194e+02	1.2881414e+00
8.91798e-05    	(4.4069221e+01 -1.2329964e-01 -3.7491510e+01)	1.0822345e+05	2.9202629e+02	1.2881216e+00
8.9585e-05     	(4.4126331e+01 -1.2501497e-01 -3.7541002e+01)	1.0822038e+05	2.9202117e+02	1.2881076e+00
8.99901e-05    	(4.4172111e+01 -1.2647109e-01 -3.7580841e+01)	1.0821860e+05	2.9201705e+02	1.2881046e+00
9.03952e-05    	(4.4202445e+01 -1.2756748e-01 -3.7607524e+01)	1.0821860e+05	2.9201430e+02	1.2881167e+00
9.08004e-05    	(4.4215084e+01 -1.2820716e-01 -3.7619100e+01)	1.0822065e+05	2.9201313e+02	1.2881462e+00
9.12055e-05    	(4.4209136e+01 -1.2842745e-01 -3.7614757e+01)	1.0822486e+05	2.9201363e+02	1.2881941e+00
9.16106e-05    	(4.4185748e+01 -1.2827229e-01 -3.7595499e+01)	1.0823111e+05	2.9201571e+02	1.2882594e+00
9.20158e-05    	(4.4147699e+01 -1.2768093e-01 -3.7563842e+01)	1.0823906e+05	2.9201910e+02	1.2883391e+00
9.24209e-05    	(4.4098957e+01 -1.2671054e-01 -3.7522892e+01)	1.0824827e+05	2.9202346e+02	1.2884295e+00
9.2826e-05     	(4.4044783e+01 -1.2551148e-01 -3.7477096e+01)	1.0825811e+05	2.9202831e+02	1.2885254e+00
9.32312e-05    	(4.3991015e+01 -1.2423095e-01 -3.7431415e+01)	1.0826792e+05	2.9203313e+02	1.2886209e+00
9.36363e-05    	(4.3943638e+01 -1.2300223e-01 -3.7391170e+01)	1.0827698e+05	2.9203738e+02	1.2887101e+00
9.40414e-05    	(4.3907553e+01 -1.2197654e-01 -3.7360362e+01)	1.0828475e+05	2.9204063e+02	1.2887883e+00
9.44466e-05    	(4.3886602e+01 -1.2118978e-01 -3.7342033e+01)	1.0829080e+05	2.9204255e+02	1.2888518e+00
9.48517e-05    	(4.3883557e+01 -1.2072599e-01 -3.7338524e+01)	1.0829481e+05	2.9204290e+02	1.2888981e+00
9.52568e-05    	(4.3899846e+01 -1.2069458e-01 -3.7351400e+01)	1.0829661e+05	2.9204154e+02	1.2889254e+00
9.5662e-05     	(4.3935600e+01 -1.2101793e-01 -3.7380861e+01)	1.0829616e+05	2.9203844e+02	1.2889337e+00
9.60671e-05    	(4.3989463e+01 -1.2166362e-01 -3.7425560e+01)	1.0829362e+05	2.9203374e+02	1.2889242e+00
9.64722e-05    	(4.4059081e+01 -1.2260915e-01 -3.7483491e+01)	1.0828926e+05	2.9202762e+02	1.2888992e+00
9.68774e-05    	(4.4142376e+01 -1.2369186e-01 -3.7553156e+01)	1.0828329e+05	2.9202026e+02	1.2888605e+00
9.72825e-05    	(4.4236952e+01 -1.2477242e-01 -3.7632644e+01)	1.0827596e+05	2.9201186e+02	1.2888102e+00
9.76877e-05    	(4.4339969e+01 -1.2578073e-01 -3.7719193e+01)	1.0826762e+05	2.9200267e+02	1.2887514e+00
9.80928e-05    	(4.4448965e+01 -1.2658783e-01 -3.7810667e+01)	1.0825856e+05	2.9199293e+02	1.2886863e+00
9.8498e-05     	(4.4562121e+01 -1.2704954e-01 -3.7905860e+01)	1.0824896e+05	2.9198276e+02	1.2886167e+00
9.89031e-05    	(4.4677702e+01 -1.2710498e-01 -3.8003400e+01)	1.0823902e+05	2.9197234e+02	1.2885442e+00
9.93083e-05    	(4.4793603e+01 -1.2679195e-01 -3.8101373e+01)	1.0822900e+05	2.9196186e+02	1.2884711e+00
9.97134e-05    	(4.4907473e+01 -1.2614191e-01 -3.8197604e+01)	1.0821919e+05	2.9195153e+02	1.2883996e+00
0.000100119    	(4.5017093e+01 -1.2512911e-01 -3.8290338e+01)	1.0820984e+05	2.9194157e+02	1.2883322e+00
0.000100524    	(4.5119930e+01 -1.2382667e-01 -3.8377494e+01)	1.0820126e+05	2.9193219e+02	1.2882712e+00
0.000100929    	(4.5212730e+01 -1.2239439e-01 -3.8456238e+01)	1.0819383e+05	2.9192370e+02	1.2882200e+00
0.000101334    	(4.5291855e+01 -1.2101343e-01 -3.8523463e+01)	1.0818800e+05	2.9191645e+02	1.2881825e+00
0.000101739    	(4.5353644e+01 -1.1975710e-01 -3.8576180e+01)	1.0818420e+05	2.9191076e+02	1.2881622e+00
0.000102144    	(4.5394486e+01 -1.1881943e-01 -3.8611355e+01)	1.0818285e+05	2.9190698e+02	1.2881628e+00
0.000102549    	(4.5410257e+01 -1.1822011e-01 -3.8625302e+01)	1.0818448e+05	2.9190548e+02	1.2881887e+00
0.000102955    	(4.5398098e+01 -1.1772334e-01 -3.8615499e+01)	1.0818943e+05	2.9190656e+02	1.2882429e+00
0.00010336     	(4.5356207e+01 -1.1731486e-01 -3.8580449e+01)	1.0819792e+05	2.9191037e+02	1.2883273e+00
0.000103765    	(4.5282268e+01 -1.1682194e-01 -3.8518204e+01)	1.0821023e+05	2.9191713e+02	1.2884442e+00
0.00010417     	(4.5174450e+01 -1.1659288e-01 -3.8427185e+01)	1.0822657e+05	2.9192700e+02	1.2885953e+00
0.000104575    	(4.5033000e+01 -1.1659486e-01 -3.8307592e+01)	1.0824687e+05	2.9193993e+02	1.2887802e+00
0.00010498     	(4.4860880e+01 -1.1659925e-01 -3.8161914e+01)	1.0827076e+05	2.9195563e+02	1.2889956e+00
0.000105385    	(4.4664294e+01 -1.1640313e-01 -3.7995484e+01)	1.0829746e+05	2.9197349e+02	1.2892349e+00
0.000105791    	(4.4451720e+01 -1.1602999e-01 -3.7815266e+01)	1.0832595e+05	2.9199273e+02	1.2894894e+00
0.000106196    	(4.4232772e+01 -1.1561300e-01 -3.7629259e+01)	1.0835508e+05	2.9201247e+02	1.2897494e+00
0.000106601    	(4.4018491e+01 -1.1506628e-01 -3.7447014e+01)	1.0838356e+05	2.9203169e+02	1.2900038e+00
0.000107006    	(4.3819090e+01 -1.1441757e-01 -3.7277138e+01)	1.0841022e+05	2.9204950e+02	1.2902427e+00
0.000107411    	(4.3643538e+01 -1.1364975e-01 -3.7127355e+01)	1.0843407e+05	2.9206514e+02	1.2904576e+00
0.000107816    	(4.3499826e+01 -1.1294206e-01 -3.7004536e+01)	1.0845421e+05	2.9207793e+02	1.2906411e+00
0.000108222    	(4.3394166e+01 -1.1244866e-01 -3.6914104e+01)	1.0846997e+05	2.9208733e+02	1.2907873e+00
0.000108627    	(4.3328797e+01 -1.1212807e-01 -3.6858066e+01)	1.0848111e+05	2.9209317e+02	1.2908942e+00
0.000109032    	(4.3304715e+01 -1.1175335e-01 -3.6837252e+01)	1.0848754e+05	2.9209538e+02	1.2909609e+00
0.000109437    	(4.3320920e+01 -1.1137583e-01 -3.6850915e+01)	1.0848936e+05	2.9209404e+02	1.2909885e+00
0.000109842    	(4.3376214e+01 -1.1114308e-01 -3.6898201e+01)	1.0848671e+05	2.9208925e+02	1.2909781e+00
0.000110247    	(4.3466644e+01 -1.1106862e-01 -3.6976003e+01)	1.0848001e+05	2.9208134e+02	1.2909331e+00
0.000110652    	(4.3586346e+01 -1.1116456e-01 -3.7079002e+01)	1.0846991e+05	2.9207082e+02	1.2908594e+00
0.000111058    	(4.3728319e+01 -1.1127131e-01 -3.7201003e+01)	1.0845721e+05	2.9205829e+02	1.2907635e+00
0.000111463    	(4.3884516e+01 -1.1130861e-01 -3.7335199e+01)	1.0844281e+05	2.9204444e+02	1.2906530e+00
0.000111868    	(4.4047470e+01 -1.1125562e-01 -3.7475204e+01)	1.0842753e+05	2.9202992e+02	1.2905352e+00
0.000112273    	(4.4209433e+01 -1.1109486e-01 -3.7614205e+01)	1.0841228e+05	2.9201542e+02	1.2904175e+00
0.000112678    	(4.4363093e+01 -1.1095034e-01 -3.7745742e+01)	1.0839792e+05	2.9200160e+02	1.2903074e+00
0.000113083    	(4.4502527e+01 -1.1081899e-01 -3.7865211e+01)	1.0838512e+05	2.9198898e+02	1.2902106e+00
0.000113488    	(4.4622691e+01 -1.1085529e-01 -3.7968279e+01)	1.0837451e+05	2.9197805e+02	1.2901323e+00
0.000113894    	(4.4719616e+01 -1.1119976e-01 -3.8051297e+01)	1.0836658e+05	2.9196919e+02	1.2900770e+00
0.000114299    	(4.4790620e+01 -1.1178969e-01 -3.8112075e+01)	1.0836170e+05	2.9196267e+02	1.2900475e+00
0.000114704    	(4.4835298e+01 -1.1248719e-01 -3.8150765e+01)	1.0835988e+05	2.9195853e+02	1.2900441e+00
0.000115109    	(4.4853562e+01 -1.1324397e-01 -3.8167283e+01)	1.0836117e+05	2.9195677e+02	1.2900671e+00
0.000115514    	(4.4846372e+01 -1.1409130e-01 -3.8162060e+01)	1.0836549e+05	2.9195736e+02	1.2901159e+00
0.000115919    	(4.4816103e+01 -1.1493007e-01 -3.8137183e+01)	1.0837256e+05	2.9196007e+02	1.2901882e+00