# Residuals    
# Time         	p              	Ux             	Uy             	Uz             	e              	k              	T              
0              	N/A	N/A	N/A	N/A	N/A
1.1999e-07     	N/A	5.5616034e-01	8.0207989e-01	5.5681234e-01	3.7009875e-04	1.0000000e+00	N/A
1.56714e-07    	N/A	1.4473586e-03	4.0457908e-03	1.4585552e-03	2.5259836e-02	4.5468925e-02	N/A
1.93438e-07    	N/A	6.9754463e-04	2.0474420e-03	7.0154235e-04	1.1022743e-03	2.7874516e-02	N/A
2.2891e-07     	N/A	5.4486139e-04	1.5758678e-03	5.4861890e-04	8.1390770e-04	1.9805838e-02	N/A
2.61771e-07    	N/A	4.3748448e-04	1.2331476e-03	4.4022760e-04	6.5629970e-04	1.4602295e-02	N/A
2.95956e-07    	N/A	4.0640818e-04	1.1156202e-03	4.0882553e-04	5.9310710e-04	1.2759284e-02	N/A
3.3268e-07     	N/A	3.9296149e-04	1.0632119e-03	3.9570021e-04	5.6539308e-04	1.1747215e-02	N/A
3.69404e-07    	N/A	3.5684287e-04	9.5583795e-04	3.5972892e-04	5.1578785e-04	1.0183097e-02	N/A
4.06128e-07    	N/A	3.2873975e-04	8.7474614e-04	3.3107989e-04	4.8103318e-04	8.9847898e-03	N/A
4.42853e-07    	N/A	3.0638029e-04	8.1266222e-04	3.0770795e-04	4.5854094e-04	8.0386964e-03	N/A
4.79577e-07    	N/A	2.9142356e-04	7.8457805e-04	2.9180230e-04	4.4494686e-04	7.2716181e-03	N/A
5.16301e-07    	N/A	2.7673725e-04	7.5351106e-04	2.7423144e-04	4.3800015e-04	6.6385619e-03	N/A
5.53025e-07    	N/A	2.6365126e-04	7.2921810e-04	2.6046556e-04	4.2828779e-04	6.1068972e-03	N/A
5.89749e-07    	N/A	2.5150164e-04	7.1518779e-04	2.4869923e-04	4.1767820e-04	5.6540435e-03	N/A
6.26473e-07    	N/A	2.4065311e-04	7.1244390e-04	2.3805649e-04	4.1053250e-04	5.2632425e-03	N/A
6.63197e-07    	N/A	2.2940538e-04	7.0596701e-04	2.2673358e-04	4.0148789e-04	4.9231604e-03	N/A
6.99921e-07    	N/A	2.2055947e-04	7.0248814e-04	2.1787081e-04	3.9539064e-04	4.6244725e-03	N/A
7.36645e-07    	N/A	2.1007791e-04	7.0023784e-04	2.0844011e-04	3.8127520e-04	4.3598854e-03	N/A
7.7337e-07     	N/A	1.9883071e-04	6.9197528e-04	1.9795048e-04	3.6160458e-04	4.1239733e-03	N/A
8.10094e-07    	N/A	1.9063849e-04	6.8622555e-04	1.9001898e-04	3.4476109e-04	3.9123319e-03	N/A
8.46818e-07    	N/A	1.8446467e-04	6.8410941e-04	1.8394510e-04	3.3057629e-04	3.7213800e-03	N/A
8.83542e-07    	N/A	1.7830095e-04	6.8717836e-04	1.7800089e-04	4.5425257e-04	3.5509402e-03	N/A
9.20266e-07    	N/A	1.7358779e-04	6.9242317e-04	1.7356265e-04	3.4546339e-04	3.3908044e-03	N/A
9.5699e-07     	N/A	1.6605969e-04	6.8654096e-04	1.6667111e-04	4.1431442e-04	3.2482996e-03	N/A
9.93714e-07    	N/A	1.6116892e-04	6.8383647e-04	1.6323062e-04	2.9361873e-04	3.1131872e-03	N/A
1.03044e-06    	N/A	1.5550861e-04	6.7891395e-04	1.5693052e-04	4.7306969e-04	2.9957468e-03	N/A
1.06716e-06    	N/A	1.5216336e-04	6.7461379e-04	1.5396953e-04	2.9235267e-04	2.8782617e-03	N/A
1.10389e-06    	N/A	1.4562086e-04	6.6640841e-04	1.4684508e-04	3.8291798e-04	2.7761816e-03	N/A
1.14061e-06    	N/A	1.4286071e-04	6.6414449e-04	1.4409384e-04	2.6441957e-04	2.6756726e-03	N/A
1.17733e-06    	N/A	1.3767646e-04	6.5562930e-04	1.3853759e-04	2.5724636e-04	2.5849379e-03	N/A
1.21406e-06    	N/A	1.3401571e-04	6.5084590e-04	1.3489673e-04	2.5012861e-04	2.5001751e-03	N/A
1.25078e-06    	N/A	1.3049099e-04	6.4735062e-04	1.3155063e-04	2.4337457e-04	2.4207961e-03	N/A
1.28751e-06    	N/A	1.2724509e-04	6.4651692e-04	1.2865916e-04	2.4295746e-04	2.3464285e-03	N/A
1.32423e-06    	N/A	1.2492156e-04	6.4755442e-04	1.2577707e-04	2.6800559e-04	2.2764713e-03	N/A
1.36096e-06    	N/A	1.2162718e-04	6.4514630e-04	1.2245549e-04	3.0209406e-04	2.2117136e-03	N/A
1.39768e-06    	N/A	1.1922263e-04	6.4479158e-04	1.2035554e-04	2.6173786e-04	2.1484999e-03	N/A
1.4344e-06     	N/A	1.1620864e-04	6.4296316e-04	1.1716819e-04	2.5076098e-04	2.0893201e-03	N/A
1.47113e-06    	N/A	1.1460537e-04	6.4606027e-04	1.1580517e-04	4.9235695e-04	2.0347526e-03	N/A
1.50785e-06    	N/A	1.1263791e-04	6.4863729e-04	1.1384522e-04	4.3984909e-04	1.9823673e-03	N/A
1.54458e-06    	N/A	1.1120262e-04	6.6099890e-04	1.1249075e-04	4.2918658e-04	1.9323641e-03	N/A
1.5813e-06     	N/A	1.0966127e-04	6.5857792e-04	1.1123145e-04	3.4057009e-04	1.8839134e-03	N/A
1.61802e-06    	N/A	1.0832289e-04	6.6112489e-04	1.0996703e-04	5.6816894e-04	1.8408085e-03	N/A
1.65475e-06    	N/A	1.0641344e-04	6.5843731e-04	1.0804819e-04	4.8127879e-04	1.7991389e-03	N/A
1.69147e-06    	N/A	1.0467678e-04	6.6629301e-04	1.0639902e-04	3.2797231e-04	1.7548688e-03	N/A
1.7282e-06     	N/A	1.0262237e-04	6.6213458e-04	1.0421466e-04	2.9452318e-04	1.7156133e-03	N/A
1.76492e-06    	N/A	1.0133689e-04	6.6706001e-04	1.0313309e-04	2.7030448e-04	1.6770847e-03	N/A
1.80165e-06    	N/A	9.9307721e-05	6.6795619e-04	1.0126428e-04	3.6608752e-04	1.6419000e-03	N/A
1.83837e-06    	N/A	9.7537227e-05	6.6993060e-04	9.9544869e-05	3.2548967e-04	1.6069828e-03	N/A
1.87509e-06    	N/A	9.6495573e-05	6.8241211e-04	9.8451917e-05	4.4959053e-04	1.5748397e-03	N/A
1.91182e-06    	N/A	9.5069070e-05	6.7858890e-04	9.7025913e-05	3.5106201e-04	1.5425961e-03	N/A
1.94854e-06    	N/A	9.3818072e-05	6.7957940e-04	9.5838164e-05	2.9634598e-04	1.5114041e-03	N/A
1.98527e-06    	N/A	9.2472342e-05	6.7809528e-04	9.4347634e-05	2.4101674e-04	1.4816548e-03	N/A
2.02199e-06    	N/A	9.1229111e-05	6.7760246e-04	9.3063397e-05	2.3905854e-04	1.4540221e-03	N/A
2.05871e-06    	N/A	9.0067089e-05	6.7918660e-04	9.1852234e-05	2.2699886e-04	1.4268945e-03	N/A
2.09544e-06    	N/A	8.9218380e-05	6.8808814e-04	9.1100648e-05	3.1527702e-04	1.4018274e-03	N/A
2.13216e-06    	N/A	8.7900767e-05	6.8489039e-04	8.9771259e-05	2.7182210e-04	1.3758302e-03	N/A
2.16889e-06    	N/A	8.6566745e-05	6.8408481e-04	8.8579005e-05	2.5610044e-04	1.3514248e-03	N/A
2.20561e-06    	N/A	8.5079769e-05	6.8213919e-04	8.7121797e-05	2.3619264e-04	1.3277616e-03	N/A
2.24233e-06    	N/A	8.3692917e-05	6.8127757e-04	8.5880010e-05	2.0967289e-04	1.3047517e-03	N/A
2.27906e-06    	N/A	8.2497018e-05	6.8052597e-04	8.4804367e-05	1.9498722e-04	1.2827396e-03	N/A
2.31578e-06    	N/A	8.1595454e-05	6.8295686e-04	8.3991917e-05	1.9165870e-04	1.2617541e-03	N/A
2.35251e-06    	N/A	8.0916001e-05	6.8567046e-04	8.3066683e-05	1.9788383e-04	1.2414315e-03	N/A
2.38923e-06    	N/A	8.0428068e-05	6.8921567e-04	8.2433619e-05	2.0175325e-04	1.2218239e-03	N/A
2.42596e-06    	N/A	8.0236383e-05	6.9207560e-04	8.2133305e-05	2.0394417e-04	1.2027056e-03	N/A
2.46268e-06    	N/A	7.9784513e-05	6.9563736e-04	8.1499694e-05	1.9255216e-04	1.1838046e-03	N/A
2.4994e-06     	N/A	7.9467096e-05	6.9831681e-04	8.0957703e-05	1.9181904e-04	1.1657375e-03	N/A
2.53613e-06    	N/A	7.9114267e-05	7.0065045e-04	8.0456150e-05	1.9203620e-04	1.1482629e-03	N/A
2.57285e-06    	N/A	7.8871701e-05	7.0339478e-04	7.9991602e-05	2.4444166e-04	1.1312897e-03	N/A
2.60958e-06    	N/A	7.9163845e-05	7.2923016e-04	8.0406463e-05	5.5415868e-04	1.1148760e-03	N/A
2.6463e-06     	N/A	8.0741429e-05	8.4172985e-04	8.2296812e-05	5.6844429e-04	1.0990760e-03	N/A
2.68302e-06    	N/A	8.1034436e-05	8.3089218e-04	8.2638644e-05	3.9057121e-04	1.0833027e-03	N/A
2.71975e-06    	N/A	8.1803174e-05	8.0898771e-04	8.3393330e-05	6.8425823e-04	1.0681740e-03	N/A
2.75647e-06    	N/A	8.4493945e-05	9.7318331e-04	8.6550153e-05	8.9538903e-04	1.0536002e-03	N/A
2.7932e-06     	N/A	8.7571517e-05	1.1694773e-03	8.9422032e-05	8.9706343e-04	1.0391165e-03	N/A
2.82992e-06    	N/A	8.9444073e-05	1.3254715e-03	9.2142714e-05	7.6108762e-04	1.0251308e-03	N/A
2.86664e-06    	N/A	9.0760201e-05	1.3246999e-03	9.3346690e-05	1.1025174e-03	1.0117840e-03	N/A
2.90337e-06    	N/A	9.2514574e-05	1.3269706e-03	9.5120889e-05	1.5300127e-03	9.9846281e-04	N/A
2.94009e-06    	N/A	9.5097269e-05	1.5035878e-03	9.7743219e-05	1.4240711e-03	9.8563662e-04	N/A
2.97682e-06    	N/A	9.8274315e-05	1.6749492e-03	1.0088364e-04	1.4556823e-03	9.7331616e-04	N/A
3.01354e-06    	N/A	1.0172502e-04	1.8190968e-03	1.0562413e-04	1.4270636e-03	9.6098350e-04	N/A
3.05027e-06    	N/A	1.0349925e-04	1.9325712e-03	1.0771576e-04	1.3672265e-03	9.4908398e-04	N/A
3.08699e-06    	N/A	1.0370758e-04	1.9700486e-03	1.0827455e-04	1.6296710e-03	9.3766883e-04	N/A
3.12371e-06    	N/A	1.0480915e-04	2.0394716e-03	1.0904567e-04	1.7009300e-03	9.2653214e-04	N/A
3.16044e-06    	N/A	1.0584742e-04	2.1329978e-03	1.1069800e-04	1.9525066e-03	9.1539506e-04	N/A
3.19716e-06    	N/A	1.0628341e-04	2.3148918e-03	1.1058733e-04	1.8386447e-03	9.0452301e-04	N/A
3.23389e-06    	N/A	1.0443340e-04	2.4776486e-03	1.0796171e-04	1.6808600e-03	8.9393869e-04	N/A
3.27061e-06    	N/A	1.0208857e-04	2.5083748e-03	1.0490528e-04	1.3278911e-03	8.8368799e-04	N/A
3.30733e-06    	N/A	1.0012399e-04	2.3868158e-03	1.0247381e-04	1.1684321e-03	8.7375515e-04	N/A
3.34406e-06    	N/A	9.8187060e-05	2.1836144e-03	1.0022839e-04	1.0168244e-03	8.6393038e-04	N/A
3.38078e-06    	N/A	9.6962013e-05	1.9848816e-03	9.8800302e-05	8.6885875e-04	8.5456651e-04	N/A
3.41751e-06    	N/A	9.5404866e-05	1.8313285e-03	9.7255835e-05	7.9953982e-04	8.4524811e-04	N/A
3.45423e-06    	N/A	9.4221269e-05	1.6810420e-03	9.6131014e-05	7.0415466e-04	8.3595455e-04	N/A
3.49095e-06    	N/A	9.3204091e-05	1.5570723e-03	9.4717041e-05	6.2817562e-04	8.2700502e-04	N/A
3.52768e-06    	N/A	9.2378781e-05	1.4636829e-03	9.3705096e-05	5.7817189e-04	8.1829603e-04	N/A
3.5644e-06     	N/A	9.1669434e-05	1.3919382e-03	9.2694482e-05	5.2116583e-04	8.0974557e-04	N/A
3.60113e-06    	N/A	9.1245324e-05	1.3344580e-03	9.2092695e-05	4.7602072e-04	8.0139747e-04	N/A
3.63785e-06    	N/A	9.0815395e-05	1.2899571e-03	9.1592544e-05	4.4712761e-04	7.9324816e-04	N/A
3.67458e-06    	N/A	9.0274212e-05	1.2503924e-03	9.1081378e-05	4.1936657e-04	7.8525307e-04	N/A
3.7113e-06     	N/A	8.9749454e-05	1.2191999e-03	9.0638782e-05	3.9669612e-04	7.7740759e-04	N/A
3.74802e-06    	N/A	8.9430932e-05	1.1878257e-03	9.0333212e-05	3.7732668e-04	7.6970494e-04	N/A
3.78475e-06    	N/A	8.8996947e-05	1.1559946e-03	9.0044494e-05	3.6069978e-04	7.6217029e-04	N/A
3.82147e-06    	N/A	8.8760833e-05	1.1213311e-03	8.9924490e-05	3.4638461e-04	7.5478494e-04	N/A
3.8582e-06     	N/A	8.8746681e-05	1.0854340e-03	9.0055812e-05	3.3343783e-04	7.4756679e-04	N/A
3.89492e-06    	N/A	8.8703404e-05	1.0506331e-03	9.0152488e-05	3.2157838e-04	7.4046945e-04	N/A
3.93164e-06    	N/A	8.8733584e-05	1.0154496e-03	9.0240046e-05	3.1078708e-04	7.3347783e-04	N/A
3.96837e-06    	N/A	8.8844027e-05	9.8245608e-04	9.0367556e-05	3.0079950e-04	7.2654822e-04	N/A
4.00509e-06    	N/A	8.8896427e-05	9.5302349e-04	9.0470417e-05	2.9151125e-04	7.1982468e-04	N/A
4.04182e-06    	N/A	8.8958556e-05	9.2499385e-04	9.0586411e-05	2.8301748e-04	7.1324731e-04	N/A
4.07854e-06    	N/A	8.9177745e-05	8.9685420e-04	9.0782727e-05	2.7534352e-04	7.0672623e-04	N/A
4.11526e-06    	N/A	8.9213340e-05	8.6944757e-04	9.0915741e-05	2.6815868e-04	7.0032209e-04	N/A
4.15199e-06    	N/A	8.9261540e-05	8.4329086e-04	9.1029477e-05	2.6773024e-04	6.9461615e-04	N/A
4.18871e-06    	N/A	8.9432710e-05	8.1755487e-04	9.1302090e-05	2.5790949e-04	6.8814133e-04	N/A
4.22544e-06    	N/A	8.9523510e-05	7.9213093e-04	9.1433397e-05	2.5010098e-04	6.8192924e-04	N/A
4.26216e-06    	N/A	8.9483449e-05	7.6775468e-04	9.1543001e-05	2.4543947e-04	6.7598276e-04	N/A
4.29889e-06    	N/A	8.9595909e-05	7.4463869e-04	9.1749937e-05	2.4143983e-04	6.6851522e-04	N/A
4.33561e-06    	N/A	8.9750412e-05	7.2254385e-04	9.2018065e-05	2.3772258e-04	6.5926423e-04	N/A
4.37233e-06    	N/A	8.9799812e-05	7.0184197e-04	9.2237407e-05	2.3581645e-04	6.5373328e-04	N/A
4.40906e-06    	N/A	8.9854193e-05	6.8264019e-04	9.2427432e-05	2.3154498e-04	6.4827989e-04	N/A
4.44578e-06    	N/A	8.9904533e-05	6.6451777e-04	9.2595282e-05	2.3242800e-04	6.4344893e-04	N/A
4.48251e-06    	N/A	8.9920561e-05	6.4774890e-04	9.2733064e-05	2.2614868e-04	6.3800329e-04	N/A
4.51923e-06    	N/A	8.9887604e-05	6.3110394e-04	9.2764969e-05	2.2126915e-04	6.3289658e-04	N/A
4.55595e-06    	N/A	8.9998927e-05	6.1504057e-04	9.2780707e-05	2.3274341e-04	6.2948388e-04	N/A
4.59268e-06    	N/A	9.0105600e-05	6.0031819e-04	9.2925350e-05	2.3771390e-04	6.2538651e-04	N/A
4.6294e-06     	N/A	9.0194986e-05	5.8682511e-04	9.3040630e-05	2.2530779e-04	6.1946614e-04	N/A
4.66613e-06    	N/A	8.9969848e-05	5.7264256e-04	9.2809729e-05	2.1120479e-04	6.1403625e-04	N/A
4.70285e-06    	N/A	8.9688316e-05	5.5862393e-04	9.2470765e-05	2.1534566e-04	6.1016961e-04	N/A
4.73957e-06    	N/A	8.9660501e-05	5.4624790e-04	9.2547508e-05	2.0912712e-04	6.0521625e-04	N/A
4.7763e-06     	N/A	8.9689450e-05	5.3391356e-04	9.2512714e-05	2.0305395e-04	6.0040153e-04	N/A
4.81302e-06    	N/A	8.9726868e-05	5.2200063e-04	9.2421898e-05	2.0017181e-04	5.9597144e-04	N/A
4.84975e-06    	N/A	8.9688440e-05	5.1101502e-04	9.2352074e-05	1.9791790e-04	5.9169971e-04	N/A
4.88647e-06    	N/A	8.9662631e-05	5.0033395e-04	9.2330649e-05	1.9564873e-04	5.8747346e-04	N/A
4.9232e-06     	N/A	8.9738663e-05	4.9007209e-04	9.2388604e-05	1.9604287e-04	5.8357219e-04	N/A
4.95992e-06    	N/A	8.9644652e-05	4.8058409e-04	9.2383236e-05	1.9870927e-04	5.7986397e-04	N/A
4.99664e-06    	N/A	8.9679089e-05	4.7153600e-04	9.2457634e-05	1.9137635e-04	5.7530705e-04	N/A
5.03337e-06    	N/A	8.9780000e-05	4.6246615e-04	9.2506684e-05	1.8970216e-04	5.7148206e-04	N/A
5.07009e-06    	N/A	8.9746533e-05	4.5391707e-04	9.2449352e-05	1.8786516e-04	5.6751031e-04	N/A
5.10682e-06    	N/A	8.9736030e-05	4.4565768e-04	9.2378148e-05	1.8639718e-04	5.6375514e-04	N/A
5.14354e-06    	N/A	8.9825106e-05	4.3766303e-04	9.2362091e-05	1.8323183e-04	5.5976434e-04	N/A
5.18026e-06    	N/A	8.9771675e-05	4.2990975e-04	9.2262981e-05	1.8526457e-04	5.5651956e-04	N/A
5.21699e-06    	N/A	8.9825403e-05	4.2243986e-04	9.2263139e-05	1.8891239e-04	5.5330790e-04	N/A
5.25371e-06    	N/A	9.0003037e-05	4.1533939e-04	9.2297780e-05	1.9029709e-04	5.4966241e-04	N/A
5.29044e-06    	N/A	9.0086093e-05	4.0845598e-04	9.2206962e-05	1.8918087e-04	5.4598058e-04	N/A
5.32716e-06    	N/A	9.0124636e-05	4.0172843e-04	9.2133635e-05	1.8143070e-04	5.4206629e-04	N/A
5.36388e-06    	N/A	9.0142700e-05	3.9505582e-04	9.2093953e-05	1.7684941e-04	5.3835510e-04	N/A
5.40061e-06    	N/A	9.0186126e-05	3.8884386e-04	9.2050506e-05	1.7244407e-04	5.3473418e-04	N/A
5.43733e-06    	N/A	9.0117584e-05	3.8260468e-04	9.2019050e-05	1.7186096e-04	5.3155345e-04	N/A
5.47406e-06    	N/A	9.0148111e-05	3.7665836e-04	9.2071666e-05	1.7491992e-04	5.2860242e-04	N/A
5.51078e-06    	N/A	9.0274968e-05	3.7083445e-04	9.2149333e-05	1.6912679e-04	5.2481034e-04	N/A
5.54751e-06    	N/A	9.0213039e-05	3.6515384e-04	9.2097106e-05	1.6829852e-04	5.2152906e-04	N/A
5.58423e-06    	N/A	9.0187859e-05	3.5967099e-04	9.2044611e-05	1.7328104e-04	5.1874880e-04	N/A
5.62095e-06    	N/A	9.0277830e-05	3.5454680e-04	9.2182751e-05	1.6635139e-04	5.1505765e-04	N/A
5.65768e-06    	N/A	9.0170211e-05	3.4954779e-04	9.2116523e-05	1.6046717e-04	5.1167708e-04	N/A
5.6944e-06     	N/A	9.0069876e-05	3.4476415e-04	9.2070150e-05	1.5877244e-04	5.0862288e-04	N/A
5.73113e-06    	N/A	9.0108749e-05	3.4009176e-04	9.2088669e-05	1.5788007e-04	5.0561321e-04	N/A
5.76785e-06    	N/A	9.0095346e-05	3.3561836e-04	9.2071577e-05	1.5883398e-04	5.0267338e-04	N/A
5.80457e-06    	N/A	9.0075184e-05	3.3142292e-04	9.2050687e-05	1.5947688e-04	4.9985017e-04	N/A
5.8413e-06     	N/A	9.0022483e-05	3.2740840e-04	9.2033510e-05	1.5568118e-04	4.9676333e-04	N/A
5.87802e-06    	N/A	8.9960941e-05	3.2354077e-04	9.1918455e-05	1.5406836e-04	4.9377037e-04	N/A
5.91475e-06    	N/A	8.9851159e-05	3.1974421e-04	9.1773308e-05	1.5387547e-04	4.9097590e-04	N/A
5.95147e-06    	N/A	8.9792036e-05	3.1594339e-04	9.1670306e-05	1.5217379e-04	4.8800604e-04	N/A
5.98819e-06    	N/A	8.9777370e-05	3.1217114e-04	9.1607217e-05	1.4992193e-04	4.8516218e-04	N/A
6.02492e-06    	N/A	8.9656051e-05	3.0857748e-04	9.1446019e-05	1.4916120e-04	4.8246736e-04	N/A
6.06164e-06    	N/A	8.9584762e-05	3.0507762e-04	9.1313154e-05	1.4756412e-04	4.7975257e-04	N/A
6.09837e-06    	N/A	8.9515924e-05	3.0164750e-04	9.1219206e-05	1.4583104e-04	4.7700005e-04	N/A
6.13509e-06    	N/A	8.9390724e-05	2.9831246e-04	9.1076594e-05	1.4546607e-04	4.7440759e-04	N/A
6.17182e-06    	N/A	8.9318650e-05	2.9504511e-04	9.0984405e-05	1.4528595e-04	4.7182399e-04	N/A
6.20854e-06    	N/A	8.9346806e-05	2.9193798e-04	9.1004498e-05	1.4479610e-04	4.6932083e-04	N/A
6.24526e-06    	N/A	8.9314850e-05	2.8882605e-04	9.0978074e-05	1.4734382e-04	4.6693848e-04	N/A
6.28199e-06    	N/A	8.9256299e-05	2.8589694e-04	9.0961761e-05	1.4925432e-04	4.6481427e-04	N/A
6.31871e-06    	N/A	8.9155367e-05	2.8287620e-04	9.0880682e-05	1.5157008e-04	4.6274098e-04	N/A
6.35544e-06    	N/A	8.9155834e-05	2.8015722e-04	9.0835535e-05	1.4651787e-04	4.5981970e-04	N/A
6.39216e-06    	N/A	8.8944231e-05	2.7733580e-04	9.0670542e-05	1.4200684e-04	4.5698932e-04	N/A
6.42888e-06    	N/A	8.8759910e-05	2.7451550e-04	9.0532851e-05	1.4013348e-04	4.5461262e-04	N/A
6.46561e-06    	N/A	8.8705025e-05	2.7172208e-04	9.0474133e-05	1.3790271e-04	4.5211985e-04	N/A
6.50233e-06    	N/A	8.8532397e-05	2.6909979e-04	9.0349944e-05	1.3753216e-04	4.4982145e-04	N/A
6.53906e-06    	N/A	8.8373038e-05	2.6642204e-04	9.0188375e-05	1.3552883e-04	4.4739969e-04	N/A
6.57578e-06    	N/A	8.8237471e-05	2.6374773e-04	9.0041198e-05	1.3341588e-04	4.4501539e-04	N/A
6.6125e-06     	N/A	8.8058147e-05	2.6136423e-04	8.9897507e-05	1.3376842e-04	4.4286722e-04	N/A
6.64923e-06    	N/A	8.7931006e-05	2.5898278e-04	8.9811108e-05	1.3228222e-04	4.4061118e-04	N/A
6.68595e-06    	N/A	8.7878218e-05	2.5666957e-04	8.9779201e-05	1.3177119e-04	4.3841944e-04	N/A
6.72268e-06    	N/A	8.7813384e-05	2.5439674e-04	8.9734369e-05	1.3372015e-04	4.3639742e-04	N/A
6.7594e-06     	N/A	8.7717608e-05	2.5229868e-04	8.9657225e-05	1.4111997e-04	4.3476850e-04	N/A
6.79613e-06    	N/A	8.7685853e-05	2.5038603e-04	8.9635109e-05	1.3396959e-04	4.3207747e-04	N/A
6.83285e-06    	N/A	8.7507377e-05	2.4836373e-04	8.9413411e-05	1.3122911e-04	4.2991583e-04	N/A
6.86957e-06    	N/A	8.7299403e-05	2.4639811e-04	8.9281225e-05	1.3612473e-04	4.2822197e-04	N/A
6.9063e-06     	N/A	8.7133411e-05	2.4446400e-04	8.9161351e-05	1.2997659e-04	4.2583945e-04	N/A
6.94302e-06    	N/A	8.7038959e-05	2.4249956e-04	8.9032602e-05	1.3284311e-04	4.2398595e-04	N/A
6.97975e-06    	N/A	8.6907813e-05	2.4055233e-04	8.8897631e-05	1.2712957e-04	4.2157713e-04	N/A
7.01647e-06    	N/A	8.6711630e-05	2.3861770e-04	8.8702477e-05	1.3298941e-04	4.1998893e-04	N/A
7.05319e-06    	N/A	8.6588596e-05	2.3685319e-04	8.8564036e-05	1.3421393e-04	4.1801485e-04	N/A
7.08992e-06    	N/A	8.6488746e-05	2.3533831e-04	8.8442089e-05	1.2947409e-04	4.1583617e-04	N/A
7.12664e-06    	N/A	8.6363204e-05	2.3363366e-04	8.8309341e-05	1.3290178e-04	4.1424070e-04	N/A
7.16337e-06    	N/A	8.6313261e-05	2.3201578e-04	8.8286253e-05	1.3374817e-04	4.1267549e-04	N/A
7.20009e-06    	N/A	8.6228585e-05	2.3035136e-04	8.8212225e-05	1.3306097e-04	4.1064256e-04	N/A
7.23682e-06    	N/A	8.6099855e-05	2.2875606e-04	8.8093763e-05	1.2785779e-04	4.0839013e-04	N/A
7.27354e-06    	N/A	8.5933760e-05	2.2712506e-04	8.7901290e-05	1.2266969e-04	4.0608810e-04	N/A
7.31026e-06    	N/A	8.5778807e-05	2.2546548e-04	8.7748016e-05	1.2066441e-04	4.0412649e-04	N/A
7.34699e-06    	N/A	8.5584451e-05	2.2384771e-04	8.7593709e-05	1.2131152e-04	4.0244062e-04	N/A
7.38371e-06    	N/A	8.5469967e-05	2.2234373e-04	8.7492148e-05	1.2408454e-04	4.0093210e-04	N/A
7.42044e-06    	N/A	8.5387625e-05	2.2084611e-04	8.7453390e-05	1.2109909e-04	3.9876533e-04	N/A
7.45716e-06    	N/A	8.5216422e-05	2.1936020e-04	8.7289968e-05	1.1957741e-04	3.9694999e-04	N/A
7.49388e-06    	N/A	8.5006897e-05	2.1791422e-04	8.7109454e-05	1.1732202e-04	3.9500289e-04	N/A
7.53061e-06    	N/A	8.4850389e-05	2.1647131e-04	8.6954470e-05	1.1566672e-04	3.9310508e-04	N/A
7.56733e-06    	N/A	8.4647407e-05	2.1514715e-04	8.6778687e-05	1.2004368e-04	3.9153397e-04	N/A
7.60406e-06    	N/A	8.4450782e-05	2.1372596e-04	8.6612609e-05	1.1957524e-04	3.8977640e-04	N/A
7.64078e-06    	N/A	8.4324000e-05	2.1238757e-04	8.6500273e-05	1.1820336e-04	3.8812736e-04	N/A
7.6775e-06     	N/A	8.4170092e-05	2.1115445e-04	8.6371117e-05	1.1653595e-04	3.8631819e-04	N/A
7.71423e-06    	N/A	8.3981493e-05	2.0995000e-04	8.6196539e-05	1.1401033e-04	3.8445919e-04	N/A
7.75095e-06    	N/A	8.3812779e-05	2.0875524e-04	8.6047817e-05	1.1367611e-04	3.8285808e-04	N/A
7.78768e-06    	N/A	8.3658816e-05	2.0760398e-04	8.5893650e-05	1.1478985e-04	3.8146398e-04	N/A
7.8244e-06     	N/A	8.3520774e-05	2.0647744e-04	8.5729958e-05	1.1298867e-04	3.7984968e-04	N/A
7.86113e-06    	N/A	8.3348479e-05	2.0532426e-04	8.5560645e-05	1.1151813e-04	3.7808782e-04	N/A
7.89785e-06    	N/A	8.3216161e-05	2.0420254e-04	8.5420082e-05	1.1070839e-04	3.7648565e-04	N/A
7.93457e-06    	N/A	8.3038666e-05	2.0314270e-04	8.5234843e-05	1.0927344e-04	3.7482137e-04	N/A
7.9713e-06     	N/A	8.2861288e-05	2.0208546e-04	8.5032375e-05	1.1281851e-04	3.7370787e-04	N/A
8.00802e-06    	N/A	8.2758912e-05	2.0103328e-04	8.4892283e-05	1.0957429e-04	3.7175257e-04	N/A
8.04475e-06    	N/A	8.2544420e-05	2.0009709e-04	8.4655085e-05	1.1287179e-04	3.7055408e-04	N/A
8.08147e-06    	N/A	8.2435903e-05	1.9919070e-04	8.4475557e-05	1.1290947e-04	3.6920878e-04	N/A
8.11819e-06    	N/A	8.2308826e-05	1.9823343e-04	8.4315573e-05	1.0874975e-04	3.6729659e-04	N/A
8.15492e-06    	N/A	8.2077555e-05	1.9730569e-04	8.4105526e-05	1.0893956e-04	3.6596128e-04	N/A
8.19164e-06    	N/A	8.1884524e-05	1.9642974e-04	8.3942457e-05	1.1012461e-04	3.6461524e-04	N/A
8.22837e-06    	N/A	8.1697106e-05	1.9556786e-04	8.3798296e-05	1.0830857e-04	3.6298988e-04	N/A
8.26509e-06    	N/A	8.1486620e-05	1.9473505e-04	8.3592767e-05	1.1139460e-04	3.6208286e-04	N/A
8.30181e-06    	N/A	8.1319411e-05	1.9393616e-04	8.3450983e-05	1.0871487e-04	3.6015875e-04	N/A
8.33854e-06    	N/A	8.1113154e-05	1.9318395e-04	8.3242120e-05	1.0670036e-04	3.5867241e-04	N/A
8.37526e-06    	N/A	8.0918709e-05	1.9240055e-04	8.3079349e-05	1.0769725e-04	3.5752612e-04	N/A
8.41199e-06    	N/A	8.0760593e-05	1.9170722e-04	8.2931682e-05	1.0577774e-04	3.5587863e-04	N/A
8.44871e-06    	N/A	8.0569210e-05	1.9103370e-04	8.2743861e-05	1.0364016e-04	3.5436856e-04	N/A
8.48544e-06    	N/A	8.0374451e-05	1.9033018e-04	8.2543880e-05	1.0287497e-04	3.5297655e-04	N/A
8.52216e-06    	N/A	8.0158134e-05	1.8969155e-04	8.2338495e-05	1.0940389e-04	3.5265743e-04	N/A
8.55888e-06    	N/A	8.0049463e-05	1.8912566e-04	8.2264713e-05	1.0463935e-04	3.5043526e-04	N/A
8.59561e-06    	N/A	7.9878756e-05	1.8849364e-04	8.2096977e-05	1.0209053e-04	3.4897814e-04	N/A
8.63233e-06    	N/A	7.9655707e-05	1.8785602e-04	8.1884868e-05	1.0158519e-04	3.4770176e-04	N/A
8.66906e-06    	N/A	7.9443925e-05	1.8722360e-04	8.1705020e-05	1.0249056e-04	3.4652948e-04	N/A
8.70578e-06    	N/A	7.9295008e-05	1.8664524e-04	8.1570002e-05	1.0264845e-04	3.4527728e-04	N/A
8.7425e-06     	N/A	7.9126012e-05	1.8609001e-04	8.1394477e-05	1.0099336e-04	3.4383347e-04	N/A
8.77923e-06    	N/A	7.8924213e-05	1.8553448e-04	8.1215956e-05	1.0043154e-04	3.4258886e-04	N/A
8.81595e-06    	N/A	7.8781610e-05	1.8503055e-04	8.1082720e-05	1.0030209e-04	3.4135862e-04	N/A
8.85268e-06    	N/A	7.8613544e-05	1.8456205e-04	8.0932894e-05	1.0125076e-04	3.4019847e-04	N/A
8.8894e-06     	N/A	7.8444205e-05	1.8414738e-04	8.0758544e-05	1.0004651e-04	3.3885658e-04	N/A
8.92612e-06    	N/A	7.8247166e-05	1.8373774e-04	8.0570702e-05	9.9534988e-05	3.3766981e-04	N/A
8.96285e-06    	N/A	7.8046186e-05	1.8336712e-04	8.0386244e-05	9.9071627e-05	3.3639882e-04	N/A
8.99957e-06    	N/A	7.7832358e-05	1.8301079e-04	8.0193826e-05	9.9049804e-05	3.3521094e-04	N/A
9.0363e-06     	N/A	7.7635997e-05	1.8264801e-04	7.9997384e-05	9.9638064e-05	3.3410616e-04	N/A
9.07302e-06    	N/A	7.7487219e-05	1.8229592e-04	7.9830707e-05	9.8483676e-05	3.3281742e-04	N/A
9.10975e-06    	N/A	7.7279166e-05	1.8194812e-04	7.9620008e-05	9.7716433e-05	3.3160990e-04	N/A
9.14647e-06    	N/A	7.7087904e-05	1.8160502e-04	7.9443431e-05	9.7429988e-05	3.3045166e-04	N/A
9.18319e-06    	N/A	7.6933347e-05	1.8124697e-04	7.9296884e-05	9.7154757e-05	3.2929987e-04	N/A
9.21992e-06    	N/A	7.6750711e-05	1.8091810e-04	7.9130626e-05	9.7966761e-05	3.2824342e-04	N/A
9.25664e-06    	N/A	7.6605115e-05	1.8061904e-04	7.8978248e-05	9.8336197e-05	3.2715293e-04	N/A
9.29337e-06    	N/A	7.6483954e-05	1.8030261e-04	7.8855898e-05	9.8052059e-05	3.2601493e-04	N/A
9.33009e-06    	N/A	7.6292672e-05	1.8000486e-04	7.8714632e-05	9.6662810e-05	3.2478825e-04	N/A
9.36681e-06    	N/A	7.6106646e-05	1.7971327e-04	7.8524743e-05	9.8406294e-05	3.2390143e-04	N/A
9.40354e-06    	N/A	7.5986779e-05	1.7949393e-04	7.8395182e-05	9.7882502e-05	3.2272042e-04	N/A
9.44026e-06    	N/A	7.5816743e-05	1.7927670e-04	7.8232550e-05	9.8425532e-05	3.2178288e-04	N/A
9.47699e-06    	N/A	7.5643429e-05	1.7906589e-04	7.8069240e-05	9.9700866e-05	3.2083695e-04	N/A
9.51371e-06    	N/A	7.5506776e-05	1.7883086e-04	7.7933687e-05	9.6495718e-05	3.1936121e-04	N/A
9.55043e-06    	N/A	7.5308802e-05	1.7867903e-04	7.7734852e-05	9.5309307e-05	3.1830682e-04	N/A
9.58716e-06    	N/A	7.5114175e-05	1.7852436e-04	7.7522549e-05	9.6477925e-05	3.1739354e-04	N/A
9.62388e-06    	N/A	7.4959853e-05	1.7839059e-04	7.7350741e-05	9.6748494e-05	3.1637378e-04	N/A
9.66061e-06    	N/A	7.4805838e-05	1.7831220e-04	7.7188049e-05	9.6184344e-05	3.1527592e-04	N/A
9.69733e-06    	N/A	7.4635017e-05	1.7824558e-04	7.7001590e-05	9.5796934e-05	3.1426286e-04	N/A
9.73406e-06    	N/A	7.4463109e-05	1.7817662e-04	7.6865627e-05	9.4250359e-05	3.1305033e-04	N/A
9.77078e-06    	N/A	7.4317004e-05	1.7810143e-04	7.6742057e-05	9.6498751e-05	3.1241766e-04	N/A
9.8075e-06     	N/A	7.4181294e-05	1.7809437e-04	7.6636863e-05	9.4782118e-05	3.1114230e-04	N/A
9.84423e-06    	N/A	7.4010104e-05	1.7807132e-04	7.6459214e-05	9.3446820e-05	3.1000769e-04	N/A
9.88095e-06    	N/A	7.3862809e-05	1.7806336e-04	7.6284524e-05	9.3950765e-05	3.0910585e-04	N/A
9.91768e-06    	N/A	7.3698698e-05	1.7810054e-04	7.6114587e-05	9.3213861e-05	3.0803544e-04	N/A
9.9544e-06     	N/A	7.3520964e-05	1.7815604e-04	7.5928902e-05	9.3609781e-05	3.0717364e-04	N/A
9.99112e-06    	N/A	7.3382044e-05	1.7822166e-04	7.5778422e-05	9.2903573e-05	3.0615642e-04	N/A
1.00278e-05    	N/A	7.3198318e-05	1.7834282e-04	7.5593155e-05	9.2185472e-05	3.0514984e-04	N/A
1.00646e-05    	N/A	7.3020888e-05	1.7848881e-04	7.5417768e-05	9.3457190e-05	3.0440293e-04	N/A
1.01013e-05    	N/A	7.2877357e-05	1.7865031e-04	7.5278593e-05	9.2093325e-05	3.0320077e-04	N/A
1.0138e-05     	N/A	7.2695793e-05	1.7883282e-04	7.5095838e-05	9.1210783e-05	3.0222596e-04	N/A
1.01747e-05    	N/A	7.2510230e-05	1.7902019e-04	7.4911972e-05	9.0962862e-05	3.0127078e-04	N/A
1.02115e-05    	N/A	7.2374393e-05	1.7922883e-04	7.4768598e-05	9.3464653e-05	3.0070770e-04	N/A
1.02482e-05    	N/A	7.2231212e-05	1.7944793e-04	7.4613792e-05	9.1434285e-05	2.9946174e-04	N/A
1.02849e-05    	N/A	7.2021019e-05	1.7967234e-04	7.4398830e-05	9.0366697e-05	2.9849361e-04	N/A
1.03216e-05    	N/A	7.1840435e-05	1.7991379e-04	7.4206059e-05	8.9899851e-05	2.9758130e-04	N/A
1.03584e-05    	N/A	7.1676053e-05	1.8019307e-04	7.4030236e-05	8.9638525e-05	2.9666382e-04	N/A
1.03951e-05    	N/A	7.1511042e-05	1.8044874e-04	7.3862631e-05	8.9837010e-05	2.9593003e-04	N/A
1.04318e-05    	N/A	7.1363573e-05	1.8071912e-04	7.3704679e-05	9.0089972e-05	2.9510690e-04	N/A
1.04685e-05    	N/A	7.1217865e-05	1.8098224e-04	7.3546401e-05	9.2713728e-05	2.9446961e-04	N/A
1.05053e-05    	N/A	7.1076109e-05	1.8129171e-04	7.3392860e-05	8.9963747e-05	2.9319879e-04	N/A
1.0542e-05     	N/A	7.0855937e-05	1.8154032e-04	7.3183199e-05	8.9299075e-05	2.9231605e-04	N/A
1.05787e-05    	N/A	7.0670473e-05	1.8182068e-04	7.3013525e-05	8.8460615e-05	2.9136059e-04	N/A
1.06154e-05    	N/A	7.0479761e-05	1.8211927e-04	7.2835226e-05	8.7889586e-05	2.9046832e-04	N/A
1.06522e-05    	N/A	7.0300544e-05	1.8242379e-04	7.2654351e-05	8.7659875e-05	2.8960995e-04	N/A
1.06889e-05    	N/A	7.0142524e-05	1.8271942e-04	7.2499097e-05	8.8485935e-05	2.8888478e-04	N/A
1.07256e-05    	N/A	6.9986982e-05	1.8304662e-04	7.2324649e-05	8.7750421e-05	2.8799780e-04	N/A
1.07623e-05    	N/A	6.9819187e-05	1.8335816e-04	7.2136278e-05	8.8003122e-05	2.8720010e-04	N/A
1.07991e-05    	N/A	6.9683487e-05	1.8369675e-04	7.1982264e-05	8.8076168e-05	2.8642185e-04	N/A
1.08358e-05    	N/A	6.9538280e-05	1.8404747e-04	7.1805770e-05	8.6879122e-05	2.8546555e-04	N/A
1.08725e-05    	N/A	6.9382645e-05	1.8438830e-04	7.1622664e-05	8.7448468e-05	2.8472485e-04	N/A
1.09092e-05    	N/A	6.9272681e-05	1.8472818e-04	7.1477672e-05	8.6464677e-05	2.8375894e-04	N/A
1.0946e-05     	N/A	6.9122391e-05	1.8508710e-04	7.1318785e-05	8.5804116e-05	2.8291839e-04	N/A
1.09827e-05    	N/A	6.8977298e-05	1.8546361e-04	7.1149848e-05	8.7048039e-05	2.8231449e-04	N/A
1.10194e-05    	N/A	6.8849571e-05	1.8581861e-04	7.1000472e-05	8.5986733e-05	2.8133965e-04	N/A
1.10561e-05    	N/A	6.8679335e-05	1.8621359e-04	7.0815744e-05	8.6490328e-05	2.8068727e-04	N/A
1.10928e-05    	N/A	6.8506866e-05	1.8657171e-04	7.0642412e-05	8.7026299e-05	2.8002004e-04	N/A
1.11296e-05    	N/A	6.8345317e-05	1.8695510e-04	7.0490068e-05	8.6357589e-05	2.7913883e-04	N/A
1.11663e-05    	N/A	6.8176074e-05	1.8732617e-04	7.0337307e-05	8.4975458e-05	2.7814026e-04	N/A
1.1203e-05     	N/A	6.7999228e-05	1.8770080e-04	7.0166430e-05	8.5490167e-05	2.7752812e-04	N/A
1.12397e-05    	N/A	6.7852400e-05	1.8806090e-04	7.0030176e-05	8.4610027e-05	2.7662108e-04	N/A
1.12765e-05    	N/A	6.7701374e-05	1.8845479e-04	6.9890034e-05	8.4699096e-05	2.7596964e-04	N/A
1.13132e-05    	N/A	6.7557047e-05	1.8886121e-04	6.9757489e-05	8.5358928e-05	2.7528164e-04	N/A
1.13499e-05    	N/A	6.7427018e-05	1.8925545e-04	6.9635825e-05	8.5067509e-05	2.7442113e-04	N/A
1.13866e-05    	N/A	6.7288429e-05	1.8965488e-04	6.9486465e-05	8.3939548e-05	2.7350915e-04	N/A
1.14234e-05    	N/A	6.7121505e-05	1.9001105e-04	6.9309149e-05	8.4559197e-05	2.7296012e-04	N/A
1.14601e-05    	N/A	6.6971620e-05	1.9038900e-04	6.9137422e-05	8.5756044e-05	2.7255759e-04	N/A
1.14968e-05    	N/A	6.6856658e-05	1.9081596e-04	6.9013559e-05	8.4777018e-05	2.7161784e-04	N/A
1.15335e-05    	N/A	6.6725261e-05	1.9119836e-04	6.8867558e-05	8.4115977e-05	2.7077534e-04	N/A
1.15703e-05    	N/A	6.6597775e-05	1.9157114e-04	6.8711995e-05	8.3400754e-05	2.6998962e-04	N/A
1.1607e-05     	N/A	6.6480244e-05	1.9189330e-04	6.8567394e-05	8.2738160e-05	2.6921402e-04	N/A
1.16437e-05    	N/A	6.6349732e-05	1.9222414e-04	6.8411151e-05	8.5477063e-05	2.6914846e-04	N/A
1.16804e-05    	N/A	6.6264566e-05	1.9254867e-04	6.8298097e-05	8.3287417e-05	2.6781200e-04	N/A
1.17172e-05    	N/A	6.6124896e-05	1.9285479e-04	6.8137744e-05	8.5485822e-05	2.6750033e-04	N/A