# Field minima and maxima
# Time         	field          	min            	location(min)  	processor      	max            	location(max)  	processor      
5.01139e-07    	gradP          	0.0000000e+00	(8.3358082e-03 4.4180153e-03 9.8950861e-03)	0	2.4633693e+08	(-1.1517101e-02 4.9424038e-03 8.1813832e-03)	3
9.24638e-07    	gradP          	0.0000000e+00	(7.5747007e-03 7.5240618e-03 8.5078791e-03)	0	1.8069168e+08	(-1.3111489e-02 5.8523630e-03 5.3998992e-03)	3
1.34814e-06    	gradP          	0.0000000e+00	(7.2720060e-03 3.2225902e-03 9.6129720e-03)	0	1.4067761e+08	(-1.3111489e-02 5.8523630e-03 5.3998992e-03)	3
1.77163e-06    	gradP          	0.0000000e+00	(8.3459614e-03 6.4527692e-03 9.9081788e-03)	0	1.3721507e+08	(-7.5991168e-03 5.7054430e-03 1.1985305e-02)	1
2.19513e-06    	gradP          	0.0000000e+00	(5.4699233e-03 7.4610624e-03 8.2772051e-03)	0	1.3935903e+08	(-7.5991168e-03 5.7054430e-03 1.1985305e-02)	1
2.61863e-06    	gradP          	0.0000000e+00	(8.8404378e-03 4.0993611e-03 9.4671163e-03)	0	1.3325067e+08	(-7.5991168e-03 5.7054430e-03 1.1985305e-02)	1
3.04213e-06    	gradP          	0.0000000e+00	(6.8041813e-03 3.2143870e-03 9.9315789e-03)	0	1.3173042e+08	(-7.5991168e-03 5.7054430e-03 1.1985305e-02)	1
3.46563e-06    	gradP          	0.0000000e+00	(6.4956909e-03 3.2427530e-03 8.8291723e-03)	0	1.3133405e+08	(-7.5991168e-03 5.7054430e-03 1.1985305e-02)	1
3.88913e-06    	gradP          	0.0000000e+00	(8.8404589e-03 6.4527856e-03 9.4671385e-03)	0	1.3070789e+08	(-7.5991168e-03 5.7054430e-03 1.1985305e-02)	1
4.31263e-06    	gradP          	0.0000000e+00	(6.6374811e-03 3.4094823e-03 9.2991959e-03)	0	1.2801361e+08	(-7.5991168e-03 5.7054430e-03 1.1985305e-02)	1
4.73612e-06    	gradP          	0.0000000e+00	(8.3459283e-03 6.7665709e-03 9.9081394e-03)	0	1.2479704e+08	(-7.5991168e-03 5.7054430e-03 1.1985305e-02)	1
5.15962e-06    	gradP          	0.0000000e+00	(8.3459283e-03 6.7665709e-03 9.9081394e-03)	0	1.2301698e+08	(-7.5991168e-03 5.7054430e-03 1.1985305e-02)	1
5.58312e-06    	gradP          	0.0000000e+00	(8.3459477e-03 5.9820939e-03 9.9081632e-03)	0	1.2140387e+08	(-7.5991168e-03 5.7054430e-03 1.1985305e-02)	1
6.00662e-06    	gradP          	0.0000000e+00	(8.3459477e-03 5.9820939e-03 9.9081632e-03)	0	1.1972619e+08	(-7.5991168e-03 5.7054430e-03 1.1985305e-02)	1
6.43012e-06    	gradP          	0.0000000e+00	(7.2660596e-03 3.1130804e-03 9.1402609e-03)	0	1.1954546e+08	(-7.5991168e-03 5.7054430e-03 1.1985305e-02)	1
6.85362e-06    	gradP          	0.0000000e+00	(8.8142284e-03 7.6701709e-03 9.4402714e-03)	0	1.2147451e+08	(-7.5991168e-03 5.7054430e-03 1.1985305e-02)	1
7.27712e-06    	gradP          	0.0000000e+00	(8.5124213e-03 4.7269092e-03 9.7637193e-03)	0	1.2569308e+08	(-7.5991168e-03 5.7054430e-03 1.1985305e-02)	1
7.70061e-06    	gradP          	0.0000000e+00	(8.8404378e-03 4.0993611e-03 9.4671163e-03)	0	1.3302220e+08	(-7.5991168e-03 5.7054430e-03 1.1985305e-02)	1
8.12411e-06    	gradP          	0.0000000e+00	(8.3459283e-03 6.7665709e-03 9.9081394e-03)	0	1.4187980e+08	(-7.5991168e-03 5.7054430e-03 1.1985305e-02)	1
8.54761e-06    	gradP          	0.0000000e+00	(8.8404589e-03 6.4527856e-03 9.4671385e-03)	0	1.5056870e+08	(-7.5991168e-03 5.7054430e-03 1.1985305e-02)	1
8.97111e-06    	gradP          	0.0000000e+00	(8.1835462e-03 4.7269025e-03 1.0054530e-02)	0	1.5853816e+08	(-7.5991168e-03 5.7054430e-03 1.1985305e-02)	1
9.39461e-06    	gradP          	0.0000000e+00	(8.5124213e-03 4.7269092e-03 9.7637193e-03)	0	1.6572093e+08	(-7.5991168e-03 5.7054430e-03 1.1985305e-02)	1
9.81811e-06    	gradP          	0.0000000e+00	(8.5124851e-03 6.7665698e-03 9.7637869e-03)	0	1.7212337e+08	(-7.5991168e-03 5.7054430e-03 1.1985305e-02)	1
1.02416e-05    	gradP          	0.0000000e+00	(8.1835462e-03 4.7269025e-03 1.0054530e-02)	0	1.7796691e+08	(-7.5991168e-03 5.7054430e-03 1.1985305e-02)	1
1.06651e-05    	gradP          	0.0000000e+00	(6.3247559e-03 3.4783578e-03 8.8249258e-03)	0	1.8363444e+08	(-7.5991168e-03 5.7054430e-03 1.1985305e-02)	1
1.10886e-05    	gradP          	0.0000000e+00	(8.5124851e-03 6.7665698e-03 9.7637869e-03)	0	1.8864157e+08	(-7.5991168e-03 5.7054430e-03 1.1985305e-02)	1
1.15121e-05    	gradP          	0.0000000e+00	(8.8404378e-03 4.0993611e-03 9.4671163e-03)	0	1.9303529e+08	(-7.5991168e-03 5.7054430e-03 1.1985305e-02)	1
1.19356e-05    	gradP          	0.0000000e+00	(7.2584664e-03 7.4705869e-03 8.6667514e-03)	0	1.9700763e+08	(-7.5991168e-03 5.7054430e-03 1.1985305e-02)	1
1.23591e-05    	gradP          	0.0000000e+00	(7.8930826e-03 7.5989633e-03 7.8906699e-03)	0	2.0066209e+08	(-7.5991168e-03 5.7054430e-03 1.1985305e-02)	1
1.27826e-05    	gradP          	0.0000000e+00	(6.4870942e-03 3.2408877e-03 8.5129589e-03)	0	2.0379041e+08	(-7.5991168e-03 5.7054430e-03 1.1985305e-02)	1
1.32061e-05    	gradP          	0.0000000e+00	(8.8142284e-03 7.6701709e-03 9.4402714e-03)	0	2.0611061e+08	(-7.5991168e-03 5.7054430e-03 1.1985305e-02)	1
1.36296e-05    	gradP          	0.0000000e+00	(7.1058056e-03 7.5948273e-03 8.6717668e-03)	0	2.0757984e+08	(-7.5991168e-03 5.7054430e-03 1.1985305e-02)	1
1.40531e-05    	gradP          	0.0000000e+00	(8.3459477e-03 5.9820939e-03 9.9081632e-03)	0	2.0785203e+08	(-7.5991168e-03 5.7054430e-03 1.1985305e-02)	1
1.44766e-05    	gradP          	0.0000000e+00	(7.5781155e-03 7.3828347e-03 8.8359899e-03)	0	2.0757398e+08	(-7.5991168e-03 5.7054430e-03 1.1985305e-02)	1
1.49001e-05    	gradP          	0.0000000e+00	(8.1834552e-03 7.2371743e-03 1.0054413e-02)	0	2.0712602e+08	(-7.5991168e-03 5.7054430e-03 1.1985305e-02)	1
1.53236e-05    	gradP          	0.0000000e+00	(8.8404702e-03 5.9820899e-03 9.4671507e-03)	0	2.0671519e+08	(-7.5991168e-03 5.7054430e-03 1.1985305e-02)	1
1.57471e-05    	gradP          	0.0000000e+00	(8.3459462e-03 6.1389894e-03 9.9081614e-03)	0	2.0650301e+08	(-7.5991168e-03 5.7054430e-03 1.1985305e-02)	1
1.61706e-05    	gradP          	0.0000000e+00	(8.1834552e-03 7.2371743e-03 1.0054413e-02)	0	2.0687690e+08	(-7.5991168e-03 5.7054430e-03 1.1985305e-02)	1
1.65941e-05    	gradP          	0.0000000e+00	(8.8142284e-03 7.6701709e-03 9.4402714e-03)	0	2.0789098e+08	(-7.5991168e-03 5.7054430e-03 1.1985305e-02)	1
1.70176e-05    	gradP          	0.0000000e+00	(8.8142284e-03 7.6701709e-03 9.4402714e-03)	0	2.0952307e+08	(-7.5991168e-03 5.7054430e-03 1.1985305e-02)	1
1.74411e-05    	gradP          	0.0000000e+00	(8.9728160e-03 7.6700781e-03 9.2858949e-03)	0	2.1177198e+08	(-7.5991168e-03 5.7054430e-03 1.1985305e-02)	1
1.78646e-05    	gradP          	0.0000000e+00	(8.8142284e-03 7.6701709e-03 9.4402714e-03)	0	2.1445178e+08	(-7.5991168e-03 5.7054430e-03 1.1985305e-02)	1
1.82881e-05    	gradP          	0.0000000e+00	(8.6963270e-03 7.7207574e-03 8.1786730e-03)	0	2.1735767e+08	(-7.5991168e-03 5.7054430e-03 1.1985305e-02)	1
1.87116e-05    	gradP          	0.0000000e+00	(9.6642692e-03 5.0388069e-03 8.4260687e-03)	0	2.2054645e+08	(-7.5991168e-03 5.7054430e-03 1.1985305e-02)	1
1.91351e-05    	gradP          	0.0000000e+00	(1.0054530e-02 5.8251930e-03 8.1835465e-03)	0	2.2398344e+08	(-7.5991168e-03 5.7054430e-03 1.1985305e-02)	1
1.95586e-05    	gradP          	0.0000000e+00	(1.0266526e-02 4.5716250e-03 7.9171129e-03)	0	2.2702724e+08	(-7.5991168e-03 5.7054430e-03 1.1985305e-02)	1
1.99821e-05    	gradP          	0.0000000e+00	(1.0054457e-02 7.0803341e-03 8.1834885e-03)	0	2.2964562e+08	(-7.5991168e-03 5.7054430e-03 1.1985305e-02)	1
2.04056e-05    	gradP          	0.0000000e+00	(6.1288768e-03 3.9031858e-03 3.9419199e-03)	0	2.3200130e+08	(-7.5991168e-03 5.7054430e-03 1.1985305e-02)	1
2.08291e-05    	gradP          	0.0000000e+00	(6.4438559e-03 3.0428627e-03 3.8648301e-03)	0	2.3409519e+08	(-7.5991168e-03 5.7054430e-03 1.1985305e-02)	1
2.12526e-05    	gradP          	0.0000000e+00	(9.8849739e-03 3.0406791e-03 8.0862952e-03)	0	2.3590819e+08	(-7.5990934e-03 5.7054491e-03 1.1985258e-02)	1
2.16761e-05    	gradP          	0.0000000e+00	(6.2932895e-03 3.9031681e-03 3.6374245e-03)	0	5.0377024e+08	(-1.3102213e-02 5.8138056e-03 5.3608349e-03)	3
2.20996e-05    	gradP          	0.0000000e+00	(6.4474854e-03 7.4330774e-03 3.3986828e-03)	0	5.2186114e+08	(-1.3110684e-02 5.8356086e-03 5.4569099e-03)	3
2.25231e-05    	gradP          	0.0000000e+00	(1.1317475e-02 6.2958902e-03 6.3174327e-03)	0	5.1598073e+08	(-1.3110684e-02 5.8356086e-03 5.4569099e-03)	3
2.29466e-05    	gradP          	0.0000000e+00	(1.1176833e-02 6.9233943e-03 6.4888173e-03)	0	5.3329995e+08	(-1.3110684e-02 5.8356086e-03 5.4569099e-03)	3
2.33701e-05    	gradP          	0.0000000e+00	(1.0824979e-02 7.6697647e-03 7.0837360e-03)	0	5.3906781e+08	(-1.3110684e-02 5.8356086e-03 5.4569099e-03)	3
2.37936e-05    	gradP          	0.0000000e+00	(1.7984791e-03 3.1568144e-03 -9.4534146e-03)	5	5.4459582e+08	(-1.3110684e-02 5.8356086e-03 5.4569099e-03)	3
2.42171e-05    	gradP          	0.0000000e+00	(1.1317480e-02 5.0406975e-03 6.3174360e-03)	0	5.4950341e+08	(-1.3110684e-02 5.8356086e-03 5.4569099e-03)	3
2.46406e-05    	gradP          	0.0000000e+00	(1.9577705e-03 7.5157122e-03 -1.0241353e-02)	5	5.5386597e+08	(-1.3110684e-02 5.8356086e-03 5.4569099e-03)	3
2.50641e-05    	gradP          	0.0000000e+00	(-4.4917388e-03 3.0440562e-03 -1.2148736e-02)	4	5.6098818e+08	(-1.3110684e-02 5.8356086e-03 5.4569099e-03)	3
2.54876e-05    	gradP          	0.0000000e+00	(2.1100042e-03 7.5929596e-03 -1.0239026e-02)	5	5.6894543e+08	(-1.3110684e-02 5.8356086e-03 5.4569099e-03)	3
2.59111e-05    	gradP          	0.0000000e+00	(3.8522574e-04 3.1937284e-03 -8.5160256e-03)	5	5.7634836e+08	(-1.3110684e-02 5.8356086e-03 5.4569099e-03)	3
2.63345e-05    	gradP          	0.0000000e+00	(-4.0254989e-03 3.0439874e-03 -1.2307095e-02)	4	5.8294117e+08	(-1.3110684e-02 5.8356086e-03 5.4569099e-03)	3
2.6758e-05     	gradP          	0.0000000e+00	(-2.3285364e-04 4.1014526e-03 -1.2517919e-02)	5	5.8916208e+08	(-1.3110684e-02 5.8356086e-03 5.4569099e-03)	3
2.71815e-05    	gradP          	0.0000000e+00	(-3.7808178e-04 3.2048763e-03 -1.0086938e-02)	5	5.9526385e+08	(-1.3110684e-02 5.8356086e-03 5.4569099e-03)	3
2.7605e-05     	gradP          	0.0000000e+00	(1.9577705e-03 7.5157122e-03 -1.0241353e-02)	5	6.0138151e+08	(-1.3102213e-02 5.8138056e-03 5.3608349e-03)	3
2.80285e-05    	gradP          	0.0000000e+00	(1.7981650e-03 3.1547625e-03 -9.7652192e-03)	5	6.0966063e+08	(-1.3102213e-02 5.8138056e-03 5.3608349e-03)	3
2.8452e-05     	gradP          	0.0000000e+00	(2.7369425e-03 7.3791438e-03 -9.7679206e-03)	5	6.1789870e+08	(-1.3102213e-02 5.8138056e-03 5.3608349e-03)	3
2.88755e-05    	gradP          	0.0000000e+00	(3.0717650e-03 7.7039101e-03 -8.8530150e-03)	5	6.2560144e+08	(-1.3102213e-02 5.8138056e-03 5.3608349e-03)	3
2.9299e-05     	gradP          	0.0000000e+00	(6.9700023e-04 3.9397703e-03 -1.2681505e-02)	5	6.3233979e+08	(-1.3102213e-02 5.8138056e-03 5.3608349e-03)	3
2.97225e-05    	gradP          	0.0000000e+00	(1.9564466e-03 3.2028089e-03 -1.1637461e-02)	5	6.3783637e+08	(-1.3102213e-02 5.8138056e-03 5.3608349e-03)	3
3.0146e-05     	gradP          	0.0000000e+00	(1.9564466e-03 3.2028089e-03 -1.1637461e-02)	5	6.4207652e+08	(-1.3102213e-02 5.8138056e-03 5.3608349e-03)	3
3.05695e-05    	gradP          	0.0000000e+00	(1.7997303e-03 3.3238658e-03 -1.1636369e-02)	5	6.4504016e+08	(-1.3102213e-02 5.8138056e-03 5.3608349e-03)	3
3.0993e-05     	gradP          	0.0000000e+00	(3.8052902e-04 4.4182895e-03 -1.2540901e-02)	5	6.4696748e+08	(-1.3102213e-02 5.8138056e-03 5.3608349e-03)	3
3.14165e-05    	gradP          	0.0000000e+00	(1.6399065e-03 3.0783151e-03 -1.1645379e-02)	5	6.4801070e+08	(-1.3102213e-02 5.8138056e-03 5.3608349e-03)	3
3.184e-05      	gradP          	0.0000000e+00	(1.5087139e-03 3.0252672e-03 -9.1649639e-03)	5	6.4883859e+08	(-1.3102213e-02 5.8138056e-03 5.3608349e-03)	3
3.22635e-05    	gradP          	0.0000000e+00	(3.8791388e-05 3.0465624e-03 -1.2934777e-02)	5	6.4974603e+08	(-1.3102213e-02 5.8138056e-03 5.3608349e-03)	3
3.2687e-05     	gradP          	0.0000000e+00	(2.0900171e-03 4.4184847e-03 -1.2594798e-02)	5	6.5083999e+08	(-1.3102213e-02 5.8138056e-03 5.3608349e-03)	3
3.31105e-05    	gradP          	0.0000000e+00	(2.2317041e-03 4.0987634e-03 -1.2517785e-02)	5	6.5242180e+08	(-1.3102213e-02 5.8138056e-03 5.3608349e-03)	3
3.3534e-05     	gradP          	0.0000000e+00	(2.0848982e-03 3.0301167e-03 -1.1665102e-02)	5	6.5466162e+08	(-1.3102213e-02 5.8138056e-03 5.3608349e-03)	3
3.39575e-05    	gradP          	0.0000000e+00	(2.0848982e-03 3.0301167e-03 -1.1665102e-02)	5	6.5753943e+08	(-1.3102213e-02 5.8138056e-03 5.3608349e-03)	3
3.43811e-05    	gradP          	0.0000000e+00	(1.3348350e-03 3.0560734e-03 -1.1792335e-02)	5	6.6111365e+08	(-1.3102213e-02 5.8138056e-03 5.3608349e-03)	3
3.48046e-05    	gradP          	0.0000000e+00	(2.5590961e-03 3.9424354e-03 -1.2712627e-02)	5	6.6548910e+08	(-1.3102213e-02 5.8138056e-03 5.3608349e-03)	3
3.52281e-05    	gradP          	0.0000000e+00	(1.0476516e-02 4.5761296e-03 -7.5260559e-03)	7	6.7041378e+08	(-1.3102213e-02 5.8138056e-03 5.3608349e-03)	3
3.56516e-05    	gradP          	0.0000000e+00	(1.1936747e-02 5.6682938e-03 -5.0622965e-03)	6	6.7570520e+08	(-1.3102213e-02 5.8138056e-03 5.3608349e-03)	3
3.60751e-05    	gradP          	0.0000000e+00	(1.2116034e-02 4.4131086e-03 -4.6035238e-03)	6	6.8091827e+08	(-1.3102213e-02 5.8138056e-03 5.3608349e-03)	3
3.64986e-05    	gradP          	0.0000000e+00	(8.9890837e-03 7.4219841e-03 -7.2654965e-03)	7	6.8560193e+08	(-1.3102213e-02 5.8138056e-03 5.3608349e-03)	3
3.69221e-05    	gradP          	0.0000000e+00	(1.2148743e-02 3.0440357e-03 -4.4917366e-03)	6	6.8926241e+08	(-1.3102213e-02 5.8138056e-03 5.3608349e-03)	3
3.73457e-05    	gradP          	0.0000000e+00	(1.0357048e-02 4.2535783e-03 -7.4389985e-03)	7	6.9155574e+08	(-1.3102213e-02 5.8138056e-03 5.3608349e-03)	3
3.77692e-05    	gradP          	0.0000000e+00	(1.0243598e-02 4.2636192e-03 -7.9003419e-03)	7	6.9228764e+08	(-1.3102213e-02 5.8138056e-03 5.3608349e-03)	3
3.81927e-05    	gradP          	0.0000000e+00	(5.3514102e-03 3.9364452e-03 -1.1723380e-02)	7	6.9089232e+08	(-1.3102213e-02 5.8138056e-03 5.3608349e-03)	3
3.86163e-05    	gradP          	0.0000000e+00	(1.0133187e-02 4.2634622e-03 -7.8161743e-03)	7	6.8741766e+08	(-1.3102213e-02 5.8138056e-03 5.3608349e-03)	3
3.90398e-05    	gradP          	0.0000000e+00	(1.1052254e-02 3.0440998e-03 -6.7570529e-03)	7	6.8227513e+08	(-1.3102213e-02 5.8138056e-03 5.3608349e-03)	3
3.94633e-05    	gradP          	0.0000000e+00	(9.8086149e-03 4.7310318e-03 -8.2621507e-03)	7	6.7521216e+08	(-1.3102213e-02 5.8138056e-03 5.3608349e-03)	3
3.98868e-05    	gradP          	0.0000000e+00	(1.0117614e-02 3.0429721e-03 -8.0848382e-03)	7	6.6666164e+08	(-1.3102213e-02 5.8138056e-03 5.3608349e-03)	3
4.03104e-05    	gradP          	0.0000000e+00	(8.3758447e-03 4.5743760e-03 -9.6074149e-03)	7	6.5751572e+08	(-1.3102213e-02 5.8138056e-03 5.3608349e-03)	3
4.07339e-05    	gradP          	0.0000000e+00	(9.3885389e-03 3.9354494e-03 -8.7673489e-03)	7	6.5049282e+08	(-1.3110684e-02 5.8356086e-03 5.4569099e-03)	3
4.11575e-05    	gradP          	0.0000000e+00	(9.1300547e-03 7.6700759e-03 -9.1300547e-03)	7	6.4567200e+08	(-1.3110684e-02 5.8356086e-03 5.4569099e-03)	3
4.1581e-05     	gradP          	0.0000000e+00	(8.3028346e-03 4.4136521e-03 -9.8578770e-03)	7	6.4145617e+08	(-1.3110684e-02 5.8356086e-03 5.4569099e-03)	3
4.20046e-05    	gradP          	0.0000000e+00	(8.6150121e-03 3.9355948e-03 -9.5468184e-03)	7	6.3835300e+08	(-1.3110684e-02 5.8356086e-03 5.4569099e-03)	3
4.24281e-05    	gradP          	0.0000000e+00	(8.6150121e-03 3.9355948e-03 -9.5468184e-03)	7	6.3641470e+08	(-1.3110684e-02 5.8356086e-03 5.4569099e-03)	3
4.26956e-05    	gradP          	0.0000000e+00	(8.6283770e-03 7.7500000e-03 -9.5658770e-03)	7	1.2600996e+09	(-1.3101383e-02 5.8051532e-03 5.3893216e-03)	3
4.29634e-05    	gradP          	8.7237096e-09	(8.8732457e-03 7.3934188e-03 -9.4999848e-03)	7	1.3849907e+09	(-1.3096155e-02 5.7936035e-03 5.3423300e-03)	3
4.32314e-05    	gradP          	0.0000000e+00	(8.6150121e-03 3.9355948e-03 -9.5468184e-03)	7	1.4106337e+09	(-1.3096155e-02 5.7936035e-03 5.3423300e-03)	3
4.34994e-05    	gradP          	1.5671110e-08	(8.5340847e-03 3.4744242e-03 -9.6292311e-03)	7	1.4434272e+09	(-1.3096155e-02 5.7936035e-03 5.3423300e-03)	3
4.37675e-05    	gradP          	0.0000000e+00	(8.1735587e-03 7.6699735e-03 -1.0036708e-02)	7	1.4647462e+09	(-1.3096155e-02 5.7936035e-03 5.3423300e-03)	3
4.40357e-05    	gradP          	4.2164086e-08	(8.0862952e-03 3.0406776e-03 -9.8849740e-03)	7	1.4683009e+09	(-1.3096155e-02 5.7936035e-03 5.3423300e-03)	3
4.43039e-05    	gradP          	4.4679682e-08	(8.0829255e-03 3.0000000e-03 -1.0035139e-02)	7	1.4845600e+09	(-1.3096155e-02 5.7936035e-03 5.3423300e-03)	3
4.4572e-05     	gradP          	1.2150008e-07	(8.3346268e-03 3.3284063e-03 -9.9763242e-03)	7	1.4878203e+09	(-1.3096155e-02 5.7936035e-03 5.3423300e-03)	3
4.48402e-05    	gradP          	9.3475845e-08	(8.3346268e-03 3.3284063e-03 -9.9763242e-03)	7	1.4965298e+09	(-1.3096155e-02 5.7936035e-03 5.3423300e-03)	3
4.51083e-05    	gradP          	2.4191907e-07	(8.3778708e-03 3.4754002e-03 -9.9396759e-03)	7	1.5043640e+09	(-1.3096155e-02 5.7936035e-03 5.3423300e-03)	3
4.53764e-05    	gradP          	3.7188147e-07	(8.5238159e-03 3.1222676e-03 -9.8152791e-03)	7	1.5115164e+09	(-1.3096155e-02 5.7936035e-03 5.3423300e-03)	3
4.56445e-05    	gradP          	3.0765041e-07	(8.3868522e-03 3.0532311e-03 -9.9170006e-03)	7	1.5185665e+09	(-1.3096155e-02 5.7936035e-03 5.3423300e-03)	3
4.59126e-05    	gradP          	3.3533488e-07	(8.4821463e-03 3.1245447e-03 -9.8513492e-03)	7	1.5251253e+09	(-1.3096155e-02 5.7936035e-03 5.3423300e-03)	3
4.61806e-05    	gradP          	1.1260389e-06	(8.4821463e-03 3.1245447e-03 -9.8513492e-03)	7	1.5316603e+09	(-1.3096155e-02 5.7936035e-03 5.3423300e-03)	3
4.64487e-05    	gradP          	1.3683098e-06	(8.3777238e-03 3.7854986e-03 -9.9397264e-03)	7	1.5371868e+09	(-1.3096155e-02 5.7936035e-03 5.3423300e-03)	3
4.67168e-05    	gradP          	2.1556986e-06	(8.2716001e-03 3.1253498e-03 -1.0028737e-02)	7	1.5411414e+09	(-1.3096155e-02 5.7936035e-03 5.3423300e-03)	3
4.69851e-05    	gradP          	2.4728806e-06	(8.2716001e-03 3.1253498e-03 -1.0028737e-02)	7	1.5435263e+09	(-1.3096155e-02 5.7936035e-03 5.3423300e-03)	3
4.72536e-05    	gradP          	4.8484740e-06	(8.2716001e-03 3.1253498e-03 -1.0028737e-02)	7	1.5443701e+09	(-1.3096155e-02 5.7936035e-03 5.3423300e-03)	3
4.75222e-05    	gradP          	7.9468547e-06	(8.2716001e-03 3.1253498e-03 -1.0028737e-02)	7	1.5438426e+09	(-1.3096155e-02 5.7936035e-03 5.3423300e-03)	3
4.77909e-05    	gradP          	1.0897538e-05	(8.2716001e-03 3.1253498e-03 -1.0028737e-02)	7	1.5420920e+09	(-1.3096155e-02 5.7936035e-03 5.3423300e-03)	3
4.80597e-05    	gradP          	1.6928882e-05	(8.2716001e-03 3.1253498e-03 -1.0028737e-02)	7	1.5395467e+09	(-1.3096155e-02 5.7936035e-03 5.3423300e-03)	3
4.83284e-05    	gradP          	2.3909361e-05	(8.2716001e-03 3.1253498e-03 -1.0028737e-02)	7	1.5362961e+09	(-1.3096155e-02 5.7936035e-03 5.3423300e-03)	3
4.85971e-05    	gradP          	3.5889705e-05	(8.2716001e-03 3.1253498e-03 -1.0028737e-02)	7	1.5324447e+09	(-1.3096155e-02 5.7936035e-03 5.3423300e-03)	3
4.88658e-05    	gradP          	5.4969227e-05	(8.2716001e-03 3.1253498e-03 -1.0028737e-02)	7	1.5283511e+09	(-1.3096155e-02 5.7936035e-03 5.3423300e-03)	3
4.91345e-05    	gradP          	7.1307896e-05	(8.5449970e-03 5.5113935e-03 -9.7963040e-03)	7	1.5243301e+09	(-1.3096155e-02 5.7936035e-03 5.3423300e-03)	3
4.94032e-05    	gradP          	6.4870094e-05	(8.5449970e-03 5.5113935e-03 -9.7963040e-03)	7	1.5205368e+09	(-1.3096155e-02 5.7936035e-03 5.3423300e-03)	3
4.96718e-05    	gradP          	2.0612398e-04	(8.3124352e-03 3.0642915e-03 -9.9949501e-03)	7	1.5171425e+09	(-1.3096155e-02 5.7936035e-03 5.3423300e-03)	3
4.99405e-05    	gradP          	3.0066574e-04	(8.3124352e-03 3.0642915e-03 -9.9949501e-03)	7	1.5144003e+09	(-1.3096155e-02 5.7936035e-03 5.3423300e-03)	3
5.02091e-05    	gradP          	4.4675275e-04	(8.3124352e-03 3.0642915e-03 -9.9949501e-03)	7	1.5125145e+09	(-1.3096155e-02 5.7936035e-03 5.3423300e-03)	3
5.04776e-05    	gradP          	6.6276905e-04	(8.3124352e-03 3.0642915e-03 -9.9949501e-03)	7	1.5115286e+09	(-1.3096155e-02 5.7936035e-03 5.3423300e-03)	3
5.07462e-05    	gradP          	9.7916895e-04	(8.3124352e-03 3.0642915e-03 -9.9949501e-03)	7	1.5114199e+09	(-1.3096155e-02 5.7936035e-03 5.3423300e-03)	3
5.10147e-05    	gradP          	1.4332315e-03	(8.3124352e-03 3.0642915e-03 -9.9949501e-03)	7	1.5122099e+09	(-1.3096155e-02 5.7936035e-03 5.3423300e-03)	3
5.12833e-05    	gradP          	2.0795318e-03	(8.3124352e-03 3.0642915e-03 -9.9949501e-03)	7	1.5138769e+09	(-1.3096155e-02 5.7936035e-03 5.3423300e-03)	3
5.15518e-05    	gradP          	3.0057605e-03	(8.3124352e-03 3.0642915e-03 -9.9949501e-03)	7	1.5163573e+09	(-1.3096155e-02 5.7936035e-03 5.3423300e-03)	3
5.18203e-05    	gradP          	3.5432970e-03	(8.3777230e-03 5.8251955e-03 -9.9397265e-03)	7	1.5195463e+09	(-1.3096155e-02 5.7936035e-03 5.3423300e-03)	3
5.20888e-05    	gradP          	1.0336067e-03	(8.3777230e-03 5.8251955e-03 -9.9397265e-03)	7	1.5234149e+09	(-1.3096155e-02 5.7936035e-03 5.3423300e-03)	3
5.23574e-05    	gradP          	4.1573385e-03	(8.3777230e-03 5.8251955e-03 -9.9397265e-03)	7	1.5278531e+09	(-1.3096155e-02 5.7936035e-03 5.3423300e-03)	3
5.26259e-05    	gradP          	1.1094164e-02	(8.3500920e-03 3.0531537e-03 -9.9480040e-03)	7	1.5328146e+09	(-1.3096155e-02 5.7936035e-03 5.3423300e-03)	3
5.28944e-05    	gradP          	1.5120189e-02	(8.3500920e-03 3.0531537e-03 -9.9480040e-03)	7	1.5382229e+09	(-1.3096155e-02 5.7936035e-03 5.3423300e-03)	3
5.31629e-05    	gradP          	2.0603058e-02	(8.3500920e-03 3.0531537e-03 -9.9480040e-03)	7	1.5440087e+09	(-1.3096155e-02 5.7936035e-03 5.3423300e-03)	3
5.34314e-05    	gradP          	2.8077744e-02	(8.3500920e-03 3.0531537e-03 -9.9480040e-03)	7	1.5500373e+09	(-1.3096155e-02 5.7936035e-03 5.3423300e-03)	3
5.36999e-05    	gradP          	3.8038952e-02	(8.3500920e-03 3.0531537e-03 -9.9480040e-03)	7	1.5561765e+09	(-1.3096155e-02 5.7936035e-03 5.3423300e-03)	3
5.39684e-05    	gradP          	5.0020673e-02	(8.3868522e-03 3.0532311e-03 -9.9170006e-03)	7	1.5623563e+09	(-1.3096155e-02 5.7936035e-03 5.3423300e-03)	3
5.4237e-05     	gradP          	6.3860280e-02	(8.3868522e-03 3.0532311e-03 -9.9170006e-03)	7	1.5684013e+09	(-1.3096155e-02 5.7936035e-03 5.3423300e-03)	3
5.45055e-05    	gradP          	8.0524688e-02	(8.3868522e-03 3.0532311e-03 -9.9170006e-03)	7	1.5741970e+09	(-1.3096155e-02 5.7936035e-03 5.3423300e-03)	3
5.47741e-05    	gradP          	1.0159062e-01	(8.3868522e-03 3.0532311e-03 -9.9170006e-03)	7	1.5796671e+09	(-1.3096155e-02 5.7936035e-03 5.3423300e-03)	3
5.50427e-05    	gradP          	1.2745174e-01	(8.3868522e-03 3.0532311e-03 -9.9170006e-03)	7	1.5847453e+09	(-1.3096155e-02 5.7936035e-03 5.3423300e-03)	3
5.53112e-05    	gradP          	1.5842753e-01	(8.3868522e-03 3.0532311e-03 -9.9170006e-03)	7	1.5893819e+09	(-1.3096155e-02 5.7936035e-03 5.3423300e-03)	3
5.55798e-05    	gradP          	1.9546485e-01	(8.3868522e-03 3.0532311e-03 -9.9170006e-03)	7	1.5935009e+09	(-1.3096155e-02 5.7936035e-03 5.3423300e-03)	3
5.58484e-05    	gradP          	1.2135140e-01	(5.8846417e-03 3.0000000e-03 -4.7908917e-03)	7	1.5970470e+09	(-1.3092770e-02 5.7832675e-03 5.3331325e-03)	3
5.59184e-05    	gradP          	2.5227073e-01	(8.3868522e-03 3.0532311e-03 -9.9170006e-03)	7	3.4324437e+09	(-7.2217091e-03 7.4390337e-03 5.7463575e-04)	2
5.59884e-05    	gradP          	2.6444382e-01	(8.3868522e-03 3.0532311e-03 -9.9170006e-03)	7	8.4294114e+09	(-7.2190198e-03 7.4575484e-03 5.7136434e-04)	2
5.60585e-05    	gradP          	1.8935735e-01	(1.8306687e-03 3.1201031e-03 -1.2870282e-02)	5	8.5392726e+09	(-7.2217091e-03 7.4390337e-03 5.7463575e-04)	2
5.61286e-05    	gradP          	2.9130371e-01	(8.3868522e-03 3.0532311e-03 -9.9170006e-03)	7	7.7643012e+09	(-7.2190198e-03 7.4575484e-03 5.7136434e-04)	2
5.61988e-05    	gradP          	2.3877178e-01	(6.2661655e-03 7.4334310e-03 -3.6462425e-03)	7	1.4758046e+10	(-7.2190198e-03 7.4575484e-03 5.7136434e-04)	2
5.62689e-05    	gradP          	1.8077493e-01	(5.4306555e-03 3.0000000e-03 -5.1181555e-03)	7	1.5627983e+10	(-7.2190198e-03 7.4575484e-03 5.7136434e-04)	2
5.63391e-05    	gradP          	1.3569838e-01	(6.2661655e-03 7.1196290e-03 -3.6462425e-03)	7	1.5885516e+10	(-7.2190198e-03 7.4575484e-03 5.7136434e-04)	2
5.64093e-05    	gradP          	1.8368646e-01	(8.6718750e-03 7.7500000e-03 -3.9843750e-03)	7	1.6940122e+10	(-7.2190198e-03 7.4575484e-03 5.7136434e-04)	2
5.64794e-05    	gradP          	3.6879608e-01	(8.3868522e-03 3.0532311e-03 -9.9170006e-03)	7	1.2234367e+10	(-7.2190198e-03 7.4575484e-03 5.7136434e-04)	2
5.65496e-05    	gradP          	3.3584094e-01	(4.1406250e-03 3.0000000e-03 -8.9843750e-03)	7	8.9377640e+09	(-7.2190198e-03 7.4575484e-03 5.7136434e-04)	2
5.66197e-05    	gradP          	4.0382564e-01	(8.3868522e-03 3.0532311e-03 -9.9170006e-03)	7	7.3437053e+09	(-7.2190198e-03 7.4575484e-03 5.7136434e-04)	2
5.66899e-05    	gradP          	4.2223136e-01	(8.3868522e-03 3.0532311e-03 -9.9170006e-03)	7	5.3152482e+09	(-7.2190198e-03 7.4575484e-03 5.7136434e-04)	2
5.67601e-05    	gradP          	4.4124630e-01	(8.3868522e-03 3.0532311e-03 -9.9170006e-03)	7	4.4199149e+09	(-7.2217091e-03 7.4390337e-03 5.7463575e-04)	2
5.68303e-05    	gradP          	4.6086800e-01	(8.3868522e-03 3.0532311e-03 -9.9170006e-03)	7	4.9799189e+09	(-7.2217091e-03 7.4390337e-03 5.7463575e-04)	2
5.69004e-05    	gradP          	4.4871537e-01	(1.2887509e-02 3.0430478e-03 -1.4482501e-03)	6	8.2305290e+09	(-7.2217091e-03 7.4390337e-03 5.7463575e-04)	2
5.69706e-05    	gradP          	3.7280476e-01	(6.4502355e-03 7.7500000e-03 -3.7144932e-03)	7	1.0994869e+10	(-7.2217091e-03 7.4390337e-03 5.7463575e-04)	2
5.70408e-05    	gradP          	2.3771422e-01	(6.0156250e-03 7.7500000e-03 -9.7656250e-03)	7	8.1116050e+09	(-7.2217091e-03 7.4390337e-03 5.7463575e-04)	2
5.71109e-05    	gradP          	5.4479689e-01	(8.3868522e-03 3.0532311e-03 -9.9170006e-03)	7	6.4056177e+09	(-7.2217091e-03 7.4390337e-03 5.7463575e-04)	2
5.71811e-05    	gradP          	3.1305506e-01	(1.1511037e-02 7.5422849e-03 -6.0399262e-03)	7	7.0575137e+09	(-7.2190198e-03 7.4575484e-03 5.7136434e-04)	2
5.72512e-05    	gradP          	5.8572376e-01	(8.3868522e-03 3.0532311e-03 -9.9170006e-03)	7	1.4786888e+10	(-7.2190198e-03 7.4575484e-03 5.7136434e-04)	2
5.73214e-05    	gradP          	6.0433960e-01	(8.3868522e-03 3.0532311e-03 -9.9170006e-03)	7	1.4126452e+10	(-7.2190198e-03 7.4575484e-03 5.7136434e-04)	2
5.73916e-05    	gradP          	6.2337783e-01	(8.3868522e-03 3.0532311e-03 -9.9170006e-03)	7	1.3174971e+10	(-7.2190198e-03 7.4575484e-03 5.7136434e-04)	2
5.74617e-05    	gradP          	6.1339672e-01	(4.7230824e-03 7.5875374e-03 -5.5823547e-03)	7	1.5900634e+10	(-7.2190198e-03 7.4575484e-03 5.7136434e-04)	2
5.75319e-05    	gradP          	4.2186080e-01	(6.1485615e-03 7.5118815e-03 -3.8412115e-03)	7	1.5326888e+10	(-7.2190198e-03 7.4575484e-03 5.7136434e-04)	2
5.76021e-05    	gradP          	3.4661832e-01	(4.4710510e-03 7.3934306e-03 -1.2206631e-02)	7	1.5226292e+10	(-7.2190198e-03 7.4575484e-03 5.7136434e-04)	2
5.76722e-05    	gradP          	6.2558283e-01	(6.6332869e-03 7.2577011e-03 -7.7352546e-03)	7	1.3608723e+10	(-7.2190198e-03 7.4575484e-03 5.7136434e-04)	2
5.77424e-05    	gradP          	7.3453336e-01	(8.3868522e-03 3.0532311e-03 -9.9170006e-03)	7	1.1264004e+10	(-7.2190198e-03 7.4575484e-03 5.7136434e-04)	2
5.78126e-05    	gradP          	6.6309575e-01	(4.8009300e-03 7.0804035e-03 -1.2080645e-02)	7	9.0306305e+09	(-7.2190198e-03 7.4575484e-03 5.7136434e-04)	2
5.78827e-05    	gradP          	5.6056512e-01	(1.1144694e-02 7.7500000e-03 -6.4713427e-03)	7	7.0720405e+09	(-7.2190198e-03 7.4575484e-03 5.7136434e-04)	2
5.79529e-05    	gradP          	5.9633713e-01	(6.7032090e-03 7.2765300e-03 -2.7616615e-03)	7	6.0442257e+09	(-7.2190198e-03 7.4575484e-03 5.7136434e-04)	2
5.8023e-05     	gradP          	3.7877758e-01	(6.7032093e-03 7.1980795e-03 -2.7616615e-03)	7	6.6077786e+09	(-7.2190198e-03 7.4575484e-03 5.7136434e-04)	2
5.80932e-05    	gradP          	7.8932874e-01	(4.8105519e-03 7.7500000e-03 -5.5153284e-03)	7	8.9706642e+09	(-7.2217091e-03 7.4390337e-03 5.7463575e-04)	2
5.81634e-05    	gradP          	3.9025397e-01	(9.1406250e-03 7.7500000e-03 -2.8906250e-03)	6	1.1839843e+10	(-7.2217091e-03 7.4390337e-03 5.7463575e-04)	2
5.82335e-05    	gradP          	3.2580855e-01	(6.2922287e-03 7.7500000e-03 -3.8690766e-03)	7	8.8499974e+09	(-7.2190198e-03 7.4575484e-03 5.7136434e-04)	2
5.83037e-05    	gradP          	4.3792818e-01	(4.8191086e-03 7.7487970e-03 -5.4554631e-03)	7	9.9865202e+09	(-7.2217091e-03 7.4390337e-03 5.7463575e-04)	2
5.83738e-05    	gradP          	4.8506838e-01	(4.8191086e-03 7.7487970e-03 -5.4554631e-03)	7	7.8035740e+09	(-7.2217091e-03 7.4390337e-03 5.7463575e-04)	2
