# Region type : patch wOutlet
# Faces  :     2574
# Area   :     7.7677716e-05
# Time         	average(U)	average(p)	average(T)
0              	(0.0000000e+00 0.0000000e+00 0.0000000e+00)	1.0000000e+05	2.9300000e+02
4.01965e-07    	(-2.3160296e-08 4.7444353e-04 7.8839319e-10)	1.0000081e+05	2.9400001e+02
7.27512e-07    	(2.4730443e-08 6.2982592e-04 5.5481769e-08)	1.0000093e+05	2.9399997e+02
1.05663e-06    	(7.0605260e-08 5.7974845e-04 2.0581035e-07)	1.0000092e+05	2.9399992e+02
1.38681e-06    	(7.7822085e-08 4.9747608e-04 3.5816599e-07)	1.0000087e+05	2.9399988e+02
1.71576e-06    	(9.1542288e-08 4.3936321e-04 4.0562488e-07)	1.0000084e+05	2.9399986e+02
2.04805e-06    	(1.3057391e-07 3.9143179e-04 2.7887113e-07)	1.0000081e+05	2.9399983e+02
2.37928e-06    	(1.5062464e-06 3.3476893e-04 1.5966996e-06)	1.0000069e+05	2.9399668e+02
2.71099e-06    	(5.9480228e-05 9.0336232e-04 -1.4566617e-05)	9.9998947e+04	2.9398860e+02
3.04407e-06    	(3.4110861e-05 2.5494609e-03 -3.2712252e-05)	9.9997922e+04	2.9398772e+02
3.37601e-06    	(4.2174954e-05 3.4194287e-03 -1.3221219e-05)	9.9995224e+04	2.9394121e+02
3.70902e-06    	(1.0756027e-05 4.6529079e-03 4.2650437e-05)	9.9975002e+04	2.9379855e+02
4.04262e-06    	(4.9776607e-06 1.2147786e-02 1.0306144e-04)	9.9948481e+04	2.9371935e+02
4.375e-06      	(4.8763940e-06 3.3188583e-02 2.0066143e-04)	9.9926491e+04	2.9365695e+02
4.70918e-06    	(-2.7269276e-04 6.4517185e-02 5.5676356e-04)	9.9914381e+04	2.9362870e+02
5.0423e-06     	(-6.3045910e-04 9.6788220e-02 1.0457220e-03)	9.9909352e+04	2.9361030e+02
5.37532e-06    	(-8.2234532e-04 1.2275360e-01 1.2851219e-03)	9.9906003e+04	2.9360300e+02
5.70948e-06    	(-8.0699829e-04 1.3710893e-01 1.2390308e-03)	9.9902916e+04	2.9361689e+02
6.04158e-06    	(-6.2293009e-04 1.3734216e-01 8.2021198e-04)	9.9900574e+04	2.9363036e+02
6.37547e-06    	(4.1843020e-05 1.2382789e-01 -3.6923469e-04)	9.9891428e+04	2.9361694e+02
6.7081e-06     	(7.3238707e-04 9.8709901e-02 -1.6025025e-03)	9.9878989e+04	2.9357061e+02
7.04004e-06    	(1.4072056e-03 6.8133128e-02 -3.0729527e-03)	9.9857123e+04	2.9351365e+02
7.37319e-06    	(2.4617979e-03 4.3432375e-02 -5.5269408e-03)	9.9834410e+04	2.9345653e+02
7.70365e-06    	(3.6676203e-03 3.3296099e-02 -7.6243388e-03)	9.9811560e+04	2.9337293e+02
8.03561e-06    	(4.2918923e-03 3.7417276e-02 -8.6331597e-03)	9.9791163e+04	2.9332397e+02
8.36612e-06    	(4.3254806e-03 5.3630126e-02 -8.7617935e-03)	9.9778960e+04	2.9329307e+02
8.69569e-06    	(4.0192181e-03 7.4635955e-02 -8.7039578e-03)	9.9777327e+04	2.9331822e+02
9.02641e-06    	(3.7267109e-03 9.3156374e-02 -8.7895612e-03)	9.9785789e+04	2.9336135e+02
9.35429e-06    	(3.5938120e-03 1.0101872e-01 -9.0254917e-03)	9.9794188e+04	2.9338687e+02
9.68346e-06    	(3.6093877e-03 9.3303282e-02 -9.6011177e-03)	9.9795465e+04	2.9339150e+02
1.00115e-05    	(3.8873166e-03 7.2592748e-02 -1.0795168e-02)	9.9789212e+04	2.9336926e+02
1.03379e-05    	(4.0864295e-03 4.7318306e-02 -1.1928840e-02)	9.9772665e+04	2.9330121e+02
1.06658e-05    	(4.1311208e-03 2.6512873e-02 -1.2767150e-02)	9.9751430e+04	2.9323825e+02
1.0991e-05     	(4.1382997e-03 1.9111323e-02 -1.3282490e-02)	9.9732634e+04	2.9319346e+02
1.13169e-05    	(4.1477051e-03 2.3970698e-02 -1.4190306e-02)	9.9725495e+04	2.9318953e+02
1.16423e-05    	(4.3725977e-03 3.5750705e-02 -1.5623146e-02)	9.9728998e+04	2.9320448e+02
1.19661e-05    	(4.8472035e-03 4.7848308e-02 -1.7210509e-02)	9.9737043e+04	2.9322858e+02
1.22911e-05    	(5.4571408e-03 5.4416691e-02 -1.9086616e-02)	9.9744715e+04	2.9324628e+02
1.26142e-05    	(6.2083239e-03 5.1398827e-02 -2.1231387e-02)	9.9747066e+04	2.9324700e+02
1.29377e-05    	(6.9313209e-03 4.0385385e-02 -2.3338451e-02)	9.9742393e+04	2.9322383e+02
1.32608e-05    	(7.5762864e-03 2.7101006e-02 -2.5041609e-02)	9.9732212e+04	2.9319212e+02
1.3583e-05     	(8.1974267e-03 1.7400028e-02 -2.6571866e-02)	9.9721407e+04	2.9315740e+02
1.3906e-05     	(8.6674372e-03 1.4367393e-02 -2.7885926e-02)	9.9713731e+04	2.9313572e+02
1.42279e-05    	(8.7943170e-03 1.8040818e-02 -2.8753790e-02)	9.9710760e+04	2.9312597e+02
1.45503e-05    	(8.8402162e-03 2.6054046e-02 -2.9348191e-02)	9.9713651e+04	2.9313964e+02
1.48722e-05    	(9.1498206e-03 3.4337486e-02 -2.9913249e-02)	9.9720295e+04	2.9315704e+02
1.5194e-05     	(9.7211208e-03 3.9491088e-02 -3.0529684e-02)	9.9727118e+04	2.9317266e+02
1.55155e-05    	(1.0474788e-02 3.9221384e-02 -3.1257839e-02)	9.9731110e+04	2.9317836e+02
1.58368e-05    	(1.1216802e-02 3.4017782e-02 -3.2109827e-02)	9.9731735e+04	2.9317125e+02
1.61578e-05    	(1.1632391e-02 2.7403221e-02 -3.2570547e-02)	9.9727289e+04	2.9314725e+02
1.64787e-05    	(1.2009441e-02 2.2942081e-02 -3.3139564e-02)	9.9722045e+04	2.9313202e+02
1.67993e-05    	(1.2475761e-02 2.3042998e-02 -3.3939445e-02)	9.9719899e+04	2.9312363e+02
1.71197e-05    	(1.2992202e-02 2.6825746e-02 -3.4810822e-02)	9.9721585e+04	2.9312748e+02
1.74399e-05    	(1.3580830e-02 3.1885691e-02 -3.5537804e-02)	9.9726200e+04	2.9313842e+02
1.77599e-05    	(1.4100837e-02 3.5938608e-02 -3.6119253e-02)	9.9732261e+04	2.9315111e+02
1.80798e-05    	(1.4521523e-02 3.7121153e-02 -3.6523375e-02)	9.9737411e+04	2.9315813e+02
1.83994e-05    	(1.4753627e-02 3.5407795e-02 -3.6607901e-02)	9.9739836e+04	2.9315228e+02
1.87189e-05    	(1.4731070e-02 3.2372063e-02 -3.6259719e-02)	9.9738967e+04	2.9314170e+02
1.90381e-05    	(1.4359864e-02 2.9995041e-02 -3.5660703e-02)	9.9737288e+04	2.9312921e+02
1.93572e-05    	(1.3790531e-02 2.9508855e-02 -3.4970667e-02)	9.9736593e+04	2.9312608e+02
1.9676e-05     	(1.3250733e-02 3.1129737e-02 -3.4359922e-02)	9.9738226e+04	2.9312715e+02
1.99946e-05    	(1.2848708e-02 3.4159572e-02 -3.3930429e-02)	9.9741390e+04	2.9313178e+02
2.0313e-05     	(1.2684202e-02 3.7283726e-02 -3.3623183e-02)	9.9745975e+04	2.9314045e+02
2.06311e-05    	(1.2614745e-02 3.8716193e-02 -3.3094120e-02)	9.9750477e+04	2.9314706e+02
2.09489e-05    	(1.2526731e-02 3.7705243e-02 -3.2246120e-02)	9.9753474e+04	2.9314743e+02
2.12665e-05    	(1.2456286e-02 3.5203771e-02 -3.1368951e-02)	9.9754331e+04	2.9314169e+02
2.15838e-05    	(1.2386259e-02 3.3023175e-02 -3.0852909e-02)	9.9754218e+04	2.9313535e+02
2.19008e-05    	(1.2401299e-02 3.2428205e-02 -3.0749364e-02)	9.9754501e+04	2.9313063e+02
2.22176e-05    	(1.2449279e-02 3.3657883e-02 -3.0521797e-02)	9.9755581e+04	2.9312835e+02
2.2534e-05     	(1.2448589e-02 3.6114912e-02 -2.9991124e-02)	9.9758250e+04	2.9313235e+02
2.28501e-05    	(1.2399611e-02 3.8784137e-02 -2.9314224e-02)	9.9761811e+04	2.9313488e+02
2.31659e-05    	(1.2299006e-02 4.0785269e-02 -2.8524096e-02)	9.9764994e+04	2.9313380e+02
2.34813e-05    	(1.2170590e-02 4.1537337e-02 -2.7737214e-02)	9.9766957e+04	2.9313185e+02
2.37964e-05    	(1.1926607e-02 4.1358807e-02 -2.7083298e-02)	9.9768504e+04	2.9313103e+02
2.41112e-05    	(1.1569261e-02 4.0878961e-02 -2.6427208e-02)	9.9770111e+04	2.9313044e+02
2.44256e-05    	(1.1167148e-02 4.0583876e-02 -2.5549480e-02)	9.9771579e+04	2.9312858e+02
2.47398e-05    	(1.0695429e-02 4.0851214e-02 -2.4267132e-02)	9.9773061e+04	2.9312608e+02
2.50535e-05    	(1.0285582e-02 4.1553936e-02 -2.2698113e-02)	9.9774129e+04	2.9312263e+02
2.5367e-05     	(9.9031625e-03 4.2461764e-02 -2.1024013e-02)	9.9775336e+04	2.9312162e+02
2.56801e-05    	(9.5561945e-03 4.3319369e-02 -1.9566666e-02)	9.9776524e+04	2.9311911e+02
2.5993e-05     	(9.3483714e-03 4.4027924e-02 -1.8441090e-02)	9.9777635e+04	2.9311641e+02
2.63055e-05    	(9.0601860e-03 4.4408719e-02 -1.7435739e-02)	9.9778135e+04	2.9311210e+02
2.66177e-05    	(8.6459591e-03 4.4434730e-02 -1.6551597e-02)	9.9778451e+04	2.9310910e+02
2.69297e-05    	(8.1740170e-03 4.4187089e-02 -1.5674066e-02)	9.9778806e+04	2.9310692e+02
2.72414e-05    	(7.8095323e-03 4.3792498e-02 -1.4767580e-02)	9.9779423e+04	2.9310433e+02
2.75529e-05    	(7.4979196e-03 4.3572813e-02 -1.3991658e-02)	9.9779922e+04	2.9310204e+02
2.78641e-05    	(7.1629593e-03 4.3267402e-02 -1.3273604e-02)	9.9780387e+04	2.9309949e+02
2.81751e-05    	(6.8172572e-03 4.2681163e-02 -1.2709769e-02)	9.9780531e+04	2.9309559e+02
2.84858e-05    	(6.4432025e-03 4.1918495e-02 -1.2219374e-02)	9.9780604e+04	2.9309376e+02
2.87963e-05    	(6.0205350e-03 4.0810307e-02 -1.1688778e-02)	9.9780712e+04	2.9309084e+02
2.91067e-05    	(5.6254329e-03 3.9548004e-02 -1.1010348e-02)	9.9780534e+04	2.9308754e+02
2.94168e-05    	(5.2443322e-03 3.8140201e-02 -1.0105089e-02)	9.9780391e+04	2.9308510e+02
2.97267e-05    	(4.9541685e-03 3.6683038e-02 -9.1845574e-03)	9.9780379e+04	2.9308336e+02
3.00365e-05    	(4.8030903e-03 3.5474402e-02 -8.3937272e-03)	9.9780237e+04	2.9307996e+02
3.0346e-05     	(4.5805435e-03 3.4439272e-02 -7.7094215e-03)	9.9780434e+04	2.9307992e+02
3.06554e-05    	(4.2784926e-03 3.3270129e-02 -7.1248711e-03)	9.9780748e+04	2.9307936e+02
3.09646e-05    	(3.9912591e-03 3.1776785e-02 -6.5798616e-03)	9.9781017e+04	2.9307803e+02
3.12736e-05    	(3.6607754e-03 3.0037825e-02 -6.0002183e-03)	9.9780920e+04	2.9307658e+02
3.15825e-05    	(3.4023952e-03 2.8149323e-02 -5.4452739e-03)	9.9780685e+04	2.9307487e+02
3.18911e-05    	(3.2084033e-03 2.6109365e-02 -4.8494814e-03)	9.9780365e+04	2.9307352e+02
3.21996e-05    	(3.0560145e-03 2.3900242e-02 -4.2636711e-03)	9.9780188e+04	2.9307275e+02
3.2508e-05     	(2.9593954e-03 2.1982444e-02 -3.8167824e-03)	9.9779906e+04	2.9307077e+02
3.28161e-05    	(2.8310734e-03 2.0292642e-02 -3.4386658e-03)	9.9779788e+04	2.9306963e+02
3.31241e-05    	(2.6479066e-03 1.8727130e-02 -3.0022512e-03)	9.9779719e+04	2.9306830e+02
3.34319e-05    	(2.4963052e-03 1.7220897e-02 -2.5923629e-03)	9.9779734e+04	2.9306787e+02
3.37396e-05    	(2.3844330e-03 1.5615714e-02 -2.1997875e-03)	9.9779968e+04	2.9306808e+02
3.40471e-05    	(2.2834624e-03 1.3965382e-02 -1.8610637e-03)	9.9780096e+04	2.9306672e+02
3.43545e-05    	(2.1514144e-03 1.2344070e-02 -1.5119910e-03)	9.9780003e+04	2.9306547e+02
3.46617e-05    	(1.9879394e-03 1.0724197e-02 -1.1457590e-03)	9.9779946e+04	2.9306449e+02
3.49689e-05    	(1.7969920e-03 9.2421038e-03 -7.9142545e-04)	9.9779884e+04	2.9306375e+02
3.52759e-05    	(1.6008924e-03 7.9817372e-03 -4.2256503e-04)	9.9780063e+04	2.9306352e+02
3.55828e-05    	(1.3829826e-03 6.8089359e-03 -2.5557779e-05)	9.9780398e+04	2.9306340e+02
3.58896e-05    	(1.1606477e-03 5.5951572e-03 4.0977009e-04)	9.9780719e+04	2.9306324e+02
3.61963e-05    	(9.5896932e-04 4.3379590e-03 8.3057070e-04)	9.9780972e+04	2.9306249e+02
3.6503e-05     	(7.7953644e-04 3.1687057e-03 1.1949284e-03)	9.9781071e+04	2.9306159e+02
3.68097e-05    	(5.9062300e-04 2.1279643e-03 1.6092110e-03)	9.9781274e+04	2.9306084e+02
3.71163e-05    	(3.9621368e-04 1.1069235e-03 2.0492559e-03)	9.9781494e+04	2.9306016e+02
3.7423e-05     	(1.9260762e-04 1.8555032e-04 2.5405225e-03)	9.9781794e+04	2.9306005e+02
3.77297e-05    	(-3.1382807e-05 -6.5809439e-04 3.0410177e-03)	9.9782207e+04	2.9306007e+02
3.80364e-05    	(-2.7072989e-04 -1.4408472e-03 3.5303374e-03)	9.9782675e+04	2.9306016e+02
3.83432e-05    	(-4.9448209e-04 -2.2572393e-03 4.0071838e-03)	9.9783127e+04	2.9305995e+02
3.865e-05      	(-7.0837633e-04 -3.1368161e-03 4.4845274e-03)	9.9783508e+04	2.9305976e+02
3.89569e-05    	(-9.2590532e-04 -4.0177443e-03 4.9372146e-03)	9.9783869e+04	2.9305941e+02
3.92639e-05    	(-1.1475644e-03 -4.8902439e-03 5.3871992e-03)	9.9784187e+04	2.9305909e+02
3.9571e-05     	(-1.3827692e-03 -5.7284042e-03 5.8903838e-03)	9.9784567e+04	2.9305882e+02
3.98783e-05    	(-1.6286239e-03 -6.5634237e-03 6.4507115e-03)	9.9784921e+04	2.9305854e+02
4.01856e-05    	(-1.8686557e-03 -7.3163569e-03 7.0255161e-03)	9.9785305e+04	2.9305857e+02
4.04931e-05    	(-2.1060908e-03 -8.0335451e-03 7.5893077e-03)	9.9785755e+04	2.9305865e+02
4.08006e-05    	(-2.3351188e-03 -8.7553605e-03 8.1202124e-03)	9.9786251e+04	2.9305900e+02
4.11083e-05    	(-2.5625579e-03 -9.5129614e-03 8.6228936e-03)	9.9786750e+04	2.9305901e+02
4.1416e-05     	(-2.7907526e-03 -1.0294165e-02 9.1168470e-03)	9.9787192e+04	2.9305889e+02
4.17238e-05    	(-3.0274779e-03 -1.1102731e-02 9.6064609e-03)	9.9787606e+04	2.9305873e+02
4.20317e-05    	(-3.2668529e-03 -1.1932151e-02 1.0102402e-02)	9.9787977e+04	2.9305862e+02
4.23396e-05    	(-3.5051174e-03 -1.2683686e-02 1.0628116e-02)	9.9788401e+04	2.9305847e+02
4.26476e-05    	(-3.7320363e-03 -1.3371609e-02 1.1176868e-02)	9.9788868e+04	2.9305836e+02
4.29556e-05    	(-3.9456195e-03 -1.4028525e-02 1.1733497e-02)	9.9789349e+04	2.9305848e+02
4.32637e-05    	(-4.1501612e-03 -1.4643622e-02 1.2272680e-02)	9.9789883e+04	2.9305847e+02
4.35718e-05    	(-4.3714722e-03 -1.5212756e-02 1.2793438e-02)	9.9790388e+04	2.9305839e+02
4.38799e-05    	(-4.5963763e-03 -1.5750445e-02 1.3271845e-02)	9.9790928e+04	2.9305857e+02
4.41879e-05    	(-4.8321464e-03 -1.6285553e-02 1.3750660e-02)	9.9791529e+04	2.9305875e+02
4.4496e-05     	(-5.0661560e-03 -1.6831490e-02 1.4241209e-02)	9.9792101e+04	2.9305865e+02
4.48041e-05    	(-5.2956825e-03 -1.7383800e-02 1.4756058e-02)	9.9792700e+04	2.9305893e+02
4.51121e-05    	(-5.5229762e-03 -1.7881469e-02 1.5279395e-02)	9.9793325e+04	2.9305907e+02
4.54201e-05    	(-5.7312437e-03 -1.8305109e-02 1.5767362e-02)	9.9793934e+04	2.9305885e+02
4.57281e-05    	(-5.9689759e-03 -1.8676737e-02 1.6257168e-02)	9.9794589e+04	2.9305902e+02
4.60361e-05    	(-6.2134827e-03 -1.9013444e-02 1.6736630e-02)	9.9795235e+04	2.9305893e+02
4.6344e-05     	(-6.4543926e-03 -1.9310756e-02 1.7266529e-02)	9.9795896e+04	2.9305943e+02
4.66519e-05    	(-6.6833072e-03 -1.9606834e-02 1.7779054e-02)	9.9796700e+04	2.9306008e+02
4.69597e-05    	(-6.8889651e-03 -1.9859345e-02 1.8255238e-02)	9.9797472e+04	2.9306025e+02
4.72674e-05    	(-7.0892878e-03 -2.0104142e-02 1.8717629e-02)	9.9798133e+04	2.9305939e+02
4.75751e-05    	(-7.3007651e-03 -2.0358001e-02 1.9195672e-02)	9.9798732e+04	2.9305957e+02
4.78828e-05    	(-7.5131047e-03 -2.0504606e-02 1.9636313e-02)	9.9799435e+04	2.9305961e+02
4.81903e-05    	(-7.7081079e-03 -2.0551513e-02 2.0075324e-02)	9.9800204e+04	2.9305974e+02
4.84978e-05    	(-7.9016408e-03 -2.0572897e-02 2.0512411e-02)	9.9801003e+04	2.9306016e+02
4.88053e-05    	(-8.0944412e-03 -2.0593914e-02 2.0939861e-02)	9.9801863e+04	2.9306038e+02
4.91126e-05    	(-8.2662373e-03 -2.0631684e-02 2.1344198e-02)	9.9802693e+04	2.9306059e+02
4.94199e-05    	(-8.4296035e-03 -2.0692943e-02 2.1705968e-02)	9.9803476e+04	2.9306049e+02
4.9727e-05     	(-8.5967287e-03 -2.0742519e-02 2.2035032e-02)	9.9804237e+04	2.9306079e+02
5.00341e-05    	(-8.7664267e-03 -2.0743642e-02 2.2373256e-02)	9.9805016e+04	2.9306077e+02
5.03411e-05    	(-8.9286209e-03 -2.0667844e-02 2.2725402e-02)	9.9805848e+04	2.9306087e+02
5.0648e-05     	(-9.0733894e-03 -2.0525386e-02 2.3063805e-02)	9.9806711e+04	2.9306106e+02
5.09548e-05    	(-9.2044380e-03 -2.0347483e-02 2.3373134e-02)	9.9807650e+04	2.9306176e+02
5.12615e-05    	(-9.3267035e-03 -2.0166554e-02 2.3649948e-02)	9.9808657e+04	2.9306199e+02
5.15681e-05    	(-9.4248719e-03 -1.9979284e-02 2.3889578e-02)	9.9809559e+04	2.9306187e+02
5.18746e-05    	(-9.5481401e-03 -1.9796229e-02 2.4092217e-02)	9.9810467e+04	2.9306203e+02
5.2181e-05     	(-9.6852778e-03 -1.9576440e-02 2.4297038e-02)	9.9811425e+04	2.9306232e+02
5.24874e-05    	(-9.7983194e-03 -1.9294471e-02 2.4497734e-02)	9.9812453e+04	2.9306322e+02
5.27936e-05    	(-9.8994578e-03 -1.8975908e-02 2.4680468e-02)	9.9813499e+04	2.9306354e+02
5.30998e-05    	(-9.9865544e-03 -1.8653417e-02 2.4859968e-02)	9.9814592e+04	2.9306383e+02
5.34059e-05    	(-1.0063170e-02 -1.8375446e-02 2.5019258e-02)	9.9815581e+04	2.9306384e+02
5.37119e-05    	(-1.0129571e-02 -1.8088187e-02 2.5167259e-02)	9.9816568e+04	2.9306406e+02
5.40178e-05    	(-1.0202763e-02 -1.7747608e-02 2.5290106e-02)	9.9817613e+04	2.9306436e+02
5.43236e-05    	(-1.0282169e-02 -1.7341390e-02 2.5386211e-02)	9.9818657e+04	2.9306434e+02
5.46294e-05    	(-1.0354450e-02 -1.6907009e-02 2.5470112e-02)	9.9819730e+04	2.9306457e+02
5.4935e-05     	(-1.0413150e-02 -1.6461084e-02 2.5557454e-02)	9.9820880e+04	2.9306527e+02
5.52407e-05    	(-1.0456183e-02 -1.6052586e-02 2.5628193e-02)	9.9822009e+04	2.9306520e+02
5.55462e-05    	(-1.0481304e-02 -1.5658145e-02 2.5680528e-02)	9.9823014e+04	2.9306479e+02
5.58517e-05    	(-1.0497842e-02 -1.5272706e-02 2.5710096e-02)	9.9823975e+04	2.9306473e+02
5.61571e-05    	(-1.0535869e-02 -1.4821401e-02 2.5729535e-02)	9.9825023e+04	2.9306473e+02
5.64625e-05    	(-1.0596599e-02 -1.4280982e-02 2.5739659e-02)	9.9826119e+04	2.9306451e+02
5.67678e-05    	(-1.0639942e-02 -1.3719400e-02 2.5747251e-02)	9.9827243e+04	2.9306462e+02
5.7073e-05     	(-1.0659135e-02 -1.3178856e-02 2.5736695e-02)	9.9828449e+04	2.9306516e+02
5.73782e-05    	(-1.0630301e-02 -1.2643128e-02 2.5702656e-02)	9.9829598e+04	2.9306466e+02
5.76833e-05    	(-1.0611712e-02 -1.2153185e-02 2.5655576e-02)	9.9830624e+04	2.9306411e+02
5.79884e-05    	(-1.0593624e-02 -1.1697296e-02 2.5589058e-02)	9.9831593e+04	2.9306371e+02
5.82934e-05    	(-1.0602680e-02 -1.1188005e-02 2.5504867e-02)	9.9832620e+04	2.9306318e+02
5.85983e-05    	(-1.0637349e-02 -1.0581129e-02 2.5410052e-02)	9.9833640e+04	2.9306275e+02
5.89032e-05    	(-1.0647786e-02 -9.9405667e-03 2.5327128e-02)	9.9834811e+04	2.9306311e+02
5.9208e-05     	(-1.0616005e-02 -9.2807677e-03 2.5237277e-02)	9.9836057e+04	2.9306336e+02
5.95127e-05    	(-1.0560739e-02 -8.6755364e-03 2.5122756e-02)	9.9837250e+04	2.9306311e+02
5.98174e-05    	(-1.0511485e-02 -8.1573691e-03 2.4979922e-02)	9.9838310e+04	2.9306242e+02
6.01219e-05    	(-1.0469837e-02 -7.7050768e-03 2.4803608e-02)	9.9839277e+04	2.9306157e+02
6.04265e-05    	(-1.0429821e-02 -7.2260701e-03 2.4610035e-02)	9.9840217e+04	2.9306104e+02
6.07309e-05    	(-1.0408852e-02 -6.6796539e-03 2.4415091e-02)	9.9841225e+04	2.9306038e+02
6.10353e-05    	(-1.0388441e-02 -6.0251123e-03 2.4205464e-02)	9.9842352e+04	2.9306066e+02
6.13396e-05    	(-1.0334179e-02 -5.3423040e-03 2.4028227e-02)	9.9843549e+04	2.9306055e+02
6.16438e-05    	(-1.0265293e-02 -4.7274635e-03 2.3877902e-02)	9.9844623e+04	2.9305992e+02
6.1948e-05     	(-1.0191384e-02 -4.1911064e-03 2.3687326e-02)	9.9845593e+04	2.9305903e+02
6.22521e-05    	(-1.0126996e-02 -3.6918671e-03 2.3462325e-02)	9.9846496e+04	2.9305865e+02
6.25561e-05    	(-1.0066619e-02 -3.1574820e-03 2.3206495e-02)	9.9847462e+04	2.9305801e+02
6.28601e-05    	(-9.9965731e-03 -2.5244703e-03 2.2943086e-02)	9.9848461e+04	2.9305742e+02
6.3164e-05     	(-9.9275465e-03 -1.8786097e-03 2.2708760e-02)	9.9849479e+04	2.9305749e+02
6.34678e-05    	(-9.8419835e-03 -1.2455511e-03 2.2502014e-02)	9.9850532e+04	2.9305701e+02
6.37716e-05    	(-9.7717255e-03 -6.7581737e-04 2.2302584e-02)	9.9851405e+04	2.9305590e+02
6.40753e-05    	(-9.7142715e-03 -1.3480052e-04 2.2110158e-02)	9.9852252e+04	2.9305539e+02
6.4379e-05     	(-9.6669541e-03 3.9892486e-04 2.1926149e-02)	9.9853121e+04	2.9305473e+02
6.46826e-05    	(-9.6100234e-03 9.9334770e-04 2.1704184e-02)	9.9854014e+04	2.9305438e+02
6.49862e-05    	(-9.5317278e-03 1.6199931e-03 2.1467925e-02)	9.9854951e+04	2.9305392e+02
6.52898e-05    	(-9.4478332e-03 2.2116653e-03 2.1225115e-02)	9.9855938e+04	2.9305393e+02
6.55933e-05    	(-9.3640108e-03 2.7033868e-03 2.0979225e-02)	9.9856872e+04	2.9305366e+02
6.58968e-05    	(-9.2829170e-03 3.0958239e-03 2.0733172e-02)	9.9857719e+04	2.9305319e+02
6.62003e-05    	(-9.2214465e-03 3.4471679e-03 2.0490136e-02)	9.9858472e+04	2.9305236e+02
6.65037e-05    	(-9.1411428e-03 3.8150053e-03 2.0235494e-02)	9.9859213e+04	2.9305184e+02
6.68072e-05    	(-9.0418003e-03 4.2164910e-03 2.0004253e-02)	9.9859996e+04	2.9305118e+02
6.71107e-05    	(-8.9361942e-03 4.5956630e-03 1.9772609e-02)	9.9860872e+04	2.9305139e+02
6.74142e-05    	(-8.8161523e-03 4.9412254e-03 1.9503623e-02)	9.9861774e+04	2.9305110e+02
6.77177e-05    	(-8.6931858e-03 5.2174159e-03 1.9186841e-02)	9.9862605e+04	2.9305083e+02
6.80212e-05    	(-8.5448986e-03 5.4023650e-03 1.8834344e-02)	9.9863427e+04	2.9305060e+02
6.83247e-05    	(-8.3914205e-03 5.5127312e-03 1.8468842e-02)	9.9864185e+04	2.9305020e+02
6.86283e-05    	(-8.2269846e-03 5.5997967e-03 1.8079101e-02)	9.9864869e+04	2.9304962e+02
6.89319e-05    	(-8.0694463e-03 5.6987087e-03 1.7694503e-02)	9.9865571e+04	2.9304913e+02
6.92356e-05    	(-7.9007844e-03 5.8207874e-03 1.7325619e-02)	9.9866253e+04	2.9304860e+02
6.95393e-05    	(-7.7465581e-03 5.9749396e-03 1.6956592e-02)	9.9866971e+04	2.9304856e+02
6.9843e-05     	(-7.5705191e-03 6.1401756e-03 1.6551508e-02)	9.9867759e+04	2.9304857e+02
7.01468e-05    	(-7.3794501e-03 6.2923530e-03 1.6124340e-02)	9.9868520e+04	2.9304827e+02
7.04506e-05    	(-7.1845410e-03 6.3734991e-03 1.5677850e-02)	9.9869243e+04	2.9304807e+02
7.07545e-05    	(-6.9791664e-03 6.4144043e-03 1.5235869e-02)	9.9869923e+04	2.9304778e+02
7.10585e-05    	(-6.7800808e-03 6.4343756e-03 1.4798799e-02)	9.9870588e+04	2.9304751e+02
7.13625e-05    	(-6.5825399e-03 6.4712583e-03 1.4372173e-02)	9.9871217e+04	2.9304718e+02
7.16666e-05    	(-6.3838932e-03 6.5102044e-03 1.3932080e-02)	9.9871872e+04	2.9304702e+02
7.19707e-05    	(-6.1825760e-03 6.5437528e-03 1.3500558e-02)	9.9872518e+04	2.9304670e+02
7.22749e-05    	(-5.9759165e-03 6.5862733e-03 1.3071777e-02)	9.9873119e+04	2.9304630e+02
7.25791e-05    	(-5.7795597e-03 6.6441783e-03 1.2626550e-02)	9.9873755e+04	2.9304607e+02
7.28834e-05    	(-5.5839365e-03 6.6975926e-03 1.2181129e-02)	9.9874382e+04	2.9304594e+02
7.31878e-05    	(-5.4089691e-03 6.7140882e-03 1.1759101e-02)	9.9874991e+04	2.9304570e+02
7.34921e-05    	(-5.2463716e-03 6.7062416e-03 1.1351156e-02)	9.9875540e+04	2.9304533e+02
7.37966e-05    	(-5.0786788e-03 6.6709271e-03 1.0956515e-02)	9.9876094e+04	2.9304502e+02
7.4101e-05     	(-4.9059391e-03 6.6183385e-03 1.0574018e-02)	9.9876639e+04	2.9304474e+02
7.44055e-05    	(-4.7473009e-03 6.5575495e-03 1.0210775e-02)	9.9877153e+04	2.9304429e+02
7.471e-05      	(-4.5937135e-03 6.4917924e-03 9.8705837e-03)	9.9877623e+04	2.9304375e+02
7.50145e-05    	(-4.4515381e-03 6.4473062e-03 9.5571633e-03)	9.9878064e+04	2.9304340e+02
7.5319e-05     	(-4.2935872e-03 6.4005026e-03 9.2515974e-03)	9.9878561e+04	2.9304323e+02
7.56236e-05    	(-4.1388179e-03 6.3331153e-03 8.9575078e-03)	9.9879039e+04	2.9304310e+02
7.59281e-05    	(-4.0212129e-03 6.2269190e-03 8.6773985e-03)	9.9879504e+04	2.9304278e+02
7.62326e-05    	(-3.9205389e-03 6.0957129e-03 8.4155082e-03)	9.9879925e+04	2.9304255e+02
7.65371e-05    	(-3.8130729e-03 5.9439720e-03 8.1723122e-03)	9.9880332e+04	2.9304230e+02
7.68416e-05    	(-3.6969408e-03 5.7814014e-03 7.9446522e-03)	9.9880721e+04	2.9304210e+02
7.71461e-05    	(-3.5784284e-03 5.5913026e-03 7.7365027e-03)	9.9881084e+04	2.9304194e+02
7.74506e-05    	(-3.4684639e-03 5.3914453e-03 7.5326488e-03)	9.9881454e+04	2.9304171e+02
7.7755e-05     	(-3.3651433e-03 5.1981415e-03 7.3380948e-03)	9.9881774e+04	2.9304139e+02
7.80594e-05    	(-3.2677488e-03 4.9852970e-03 7.1499298e-03)	9.9882106e+04	2.9304142e+02
7.83638e-05    	(-3.1701687e-03 4.7603096e-03 6.9727799e-03)	9.9882478e+04	2.9304154e+02
7.86681e-05    	(-3.0748345e-03 4.5025010e-03 6.8043758e-03)	9.9882829e+04	2.9304157e+02
7.89724e-05    	(-2.9877895e-03 4.2054426e-03 6.6418551e-03)	9.9883142e+04	2.9304145e+02
7.92766e-05    	(-2.9115978e-03 3.8763680e-03 6.4910397e-03)	9.9883397e+04	2.9304135e+02
7.95808e-05    	(-2.8448578e-03 3.5451145e-03 6.3399524e-03)	9.9883672e+04	2.9304148e+02
7.9885e-05     	(-2.7801850e-03 3.2143843e-03 6.1894993e-03)	9.9883949e+04	2.9304157e+02
8.01891e-05    	(-2.7224519e-03 2.8599480e-03 6.0492958e-03)	9.9884212e+04	2.9304169e+02
8.04932e-05    	(-2.6536306e-03 2.4758199e-03 5.9183404e-03)	9.9884461e+04	2.9304176e+02
8.07973e-05    	(-2.5805571e-03 2.0778834e-03 5.7949615e-03)	9.9884684e+04	2.9304179e+02
8.11012e-05    	(-2.5171669e-03 1.6772494e-03 5.6746780e-03)	9.9884892e+04	2.9304169e+02
8.14052e-05    	(-2.4682247e-03 1.2874195e-03 5.5599344e-03)	9.9885077e+04	2.9304176e+02
8.17091e-05    	(-2.4232412e-03 9.0825119e-04 5.4532945e-03)	9.9885292e+04	2.9304187e+02
8.2013e-05     	(-2.3806777e-03 5.2776482e-04 5.3518866e-03)	9.9885497e+04	2.9304194e+02
8.23168e-05    	(-2.3376008e-03 1.3996865e-04 5.2567751e-03)	9.9885699e+04	2.9304210e+02
8.26206e-05    	(-2.2894389e-03 -2.4714733e-04 5.1576173e-03)	9.9885901e+04	2.9304216e+02
8.29243e-05    	(-2.2394538e-03 -6.3543967e-04 5.0697433e-03)	9.9886079e+04	2.9304221e+02
8.32281e-05    	(-2.1947032e-03 -1.0203654e-03 4.9902969e-03)	9.9886233e+04	2.9304228e+02
8.35317e-05    	(-2.1494205e-03 -1.3982161e-03 4.9116378e-03)	9.9886373e+04	2.9304214e+02
8.38354e-05    	(-2.1063401e-03 -1.7579643e-03 4.8346960e-03)	9.9886541e+04	2.9304230e+02
8.4139e-05     	(-2.0746635e-03 -2.1010150e-03 4.7526669e-03)	9.9886737e+04	2.9304253e+02
8.44426e-05    	(-2.0456499e-03 -2.4477548e-03 4.6700235e-03)	9.9886938e+04	2.9304283e+02
8.47462e-05    	(-2.0078411e-03 -2.8155797e-03 4.5914902e-03)	9.9887148e+04	2.9304309e+02
8.50497e-05    	(-1.9612747e-03 -3.2105784e-03 4.5205032e-03)	9.9887337e+04	2.9304314e+02
8.53532e-05    	(-1.9229561e-03 -3.6258233e-03 4.4444930e-03)	9.9887458e+04	2.9304291e+02
8.56567e-05    	(-1.8834254e-03 -4.0315815e-03 4.3782870e-03)	9.9887524e+04	2.9304268e+02
8.59601e-05    	(-1.8467915e-03 -4.3935631e-03 4.3079604e-03)	9.9887688e+04	2.9304300e+02
8.62635e-05    	(-1.8112905e-03 -4.7141176e-03 4.2241838e-03)	9.9887922e+04	2.9304352e+02
8.65669e-05    	(-1.7812523e-03 -5.0473204e-03 4.1467615e-03)	9.9888188e+04	2.9304395e+02
8.68703e-05    	(-1.7446880e-03 -5.4385995e-03 4.0689869e-03)	9.9888411e+04	2.9304408e+02
8.71737e-05    	(-1.6983164e-03 -5.8884751e-03 3.9882503e-03)	9.9888534e+04	2.9304385e+02
8.7477e-05     	(-1.6540664e-03 -6.3563748e-03 3.9077563e-03)	9.9888595e+04	2.9304356e+02
8.77803e-05    	(-1.6078401e-03 -6.7744154e-03 3.8208639e-03)	9.9888655e+04	2.9304330e+02
8.80836e-05    	(-1.5765708e-03 -7.1095557e-03 3.7603374e-03)	9.9888802e+04	2.9304367e+02
8.83869e-05    	(-1.5517952e-03 -7.3996968e-03 3.7048611e-03)	9.9889077e+04	2.9304415e+02
8.86901e-05    	(-1.5149176e-03 -7.7176999e-03 3.6250617e-03)	9.9889391e+04	2.9304481e+02
8.89933e-05    	(-1.4686677e-03 -8.0989280e-03 3.5396207e-03)	9.9889684e+04	2.9304511e+02
8.92965e-05    	(-1.4138595e-03 -8.5631355e-03 3.4503911e-03)	9.9889886e+04	2.9304512e+02
8.95997e-05    	(-1.3598005e-03 -9.0670080e-03 3.3517366e-03)	9.9890029e+04	2.9304493e+02
8.99029e-05    	(-1.3368628e-03 -9.5426399e-03 3.2637499e-03)	9.9890122e+04	2.9304441e+02
9.0206e-05     	(-1.3155508e-03 -9.9363848e-03 3.1895082e-03)	9.9890162e+04	2.9304399e+02
9.05091e-05    	(-1.2985268e-03 -1.0204616e-02 3.1317276e-03)	9.9890386e+04	2.9304464e+02
9.08122e-05    	(-1.2812012e-03 -1.0405021e-02 3.0693252e-03)	9.9890821e+04	2.9304563e+02
9.11153e-05    	(-1.2323426e-03 -1.0648370e-02 2.9734135e-03)	9.9891307e+04	2.9304642e+02
9.14183e-05    	(-1.1747021e-03 -1.1010332e-02 2.8737266e-03)	9.9891718e+04	2.9304685e+02
9.17213e-05    	(-1.1121724e-03 -1.1487938e-02 2.7685068e-03)	9.9891986e+04	2.9304662e+02
9.20243e-05    	(-1.0460415e-03 -1.2003490e-02 2.6613360e-03)	9.9892135e+04	2.9304643e+02
9.23273e-05    	(-1.0059003e-03 -1.2444867e-02 2.5533900e-03)	9.9892271e+04	2.9304559e+02
9.26303e-05    	(-9.8182942e-04 -1.2725992e-02 2.4592599e-03)	9.9892384e+04	2.9304530e+02
9.29332e-05    	(-9.5945635e-04 -1.2847817e-02 2.3910359e-03)	9.9892691e+04	2.9304573e+02
9.32361e-05    	(-9.3292221e-04 -1.2863841e-02 2.2989417e-03)	9.9893222e+04	2.9304690e+02
9.3539e-05     	(-8.7226845e-04 -1.2905429e-02 2.1639857e-03)	9.9893845e+04	2.9304781e+02
9.38418e-05    	(-7.9468855e-04 -1.3081255e-02 2.0129421e-03)	9.9894417e+04	2.9304842e+02
9.41446e-05    	(-7.0868179e-04 -1.3409467e-02 1.8550430e-03)	9.9894840e+04	2.9304850e+02
9.44474e-05    	(-6.2280395e-04 -1.3811752e-02 1.6902079e-03)	9.9895111e+04	2.9304817e+02
9.47502e-05    	(-5.4510847e-04 -1.4161563e-02 1.5175039e-03)	9.9895314e+04	2.9304757e+02
9.5053e-05     	(-4.9443299e-04 -1.4340713e-02 1.3655249e-03)	9.9895518e+04	2.9304690e+02
9.53557e-05    	(-4.6242929e-04 -1.4324957e-02 1.2366316e-03)	9.9895827e+04	2.9304700e+02
9.56584e-05    	(-4.0922256e-04 -1.4153000e-02 1.1149905e-03)	9.9896423e+04	2.9304838e+02
9.5961e-05     	(-3.4422342e-04 -1.3958343e-02 9.4655144e-04)	9.9897223e+04	2.9304973e+02
9.62637e-05    	(-2.5827599e-04 -1.3901396e-02 7.5534405e-04)	9.9897976e+04	2.9305053e+02
9.65663e-05    	(-1.6845219e-04 -1.4040015e-02 5.6076854e-04)	9.9898554e+04	2.9305074e+02
9.68688e-05    	(-6.8467214e-05 -1.4321768e-02 3.7046603e-04)	9.9898962e+04	2.9305071e+02
9.71714e-05    	(4.6377220e-05 -1.4602827e-02 1.7164686e-04)	9.9899312e+04	2.9305051e+02
9.74739e-05    	(1.3914296e-04 -1.4734918e-02 -1.3864522e-05)	9.9899656e+04	2.9305003e+02
9.77764e-05    	(2.0602573e-04 -1.4650128e-02 -1.9400640e-04)	9.9900028e+04	2.9304990e+02
9.80789e-05    	(2.6461421e-04 -1.4407876e-02 -3.7238152e-04)	9.9900560e+04	2.9305058e+02
9.83814e-05    	(3.2459477e-04 -1.4070709e-02 -5.8068803e-04)	9.9901351e+04	2.9305185e+02
9.86839e-05    	(4.2096664e-04 -1.3775110e-02 -8.2312378e-04)	9.9902194e+04	2.9305273e+02
9.89863e-05    	(5.2129578e-04 -1.3632955e-02 -1.0541310e-03)	9.9902909e+04	2.9305311e+02
9.92887e-05    	(6.3720372e-04 -1.3655367e-02 -1.2798147e-03)	9.9903458e+04	2.9305298e+02
9.95912e-05    	(7.3805884e-04 -1.3746355e-02 -1.5083480e-03)	9.9903920e+04	2.9305297e+02
9.98936e-05    	(8.2974101e-04 -1.3754764e-02 -1.7267175e-03)	9.9904381e+04	2.9305284e+02
0.000100196    	(9.1514077e-04 -1.3589764e-02 -1.9462911e-03)	9.9904856e+04	2.9305271e+02
0.000100498    	(9.8977333e-04 -1.3276617e-02 -2.1544702e-03)	9.9905444e+04	2.9305316e+02
0.000100801    	(1.0678549e-03 -1.2878608e-02 -2.3287729e-03)	9.9906243e+04	2.9305427e+02
0.000101103    	(1.1506816e-03 -1.2495318e-02 -2.5031785e-03)	9.9907120e+04	2.9305513e+02
0.000101406    	(1.2371672e-03 -1.2209833e-02 -2.6998295e-03)	9.9907926e+04	2.9305559e+02
0.000101708    	(1.3191589e-03 -1.2055327e-02 -2.9108074e-03)	9.9908594e+04	2.9305572e+02
0.000102011    	(1.4142755e-03 -1.1998120e-02 -3.1192104e-03)	9.9909174e+04	2.9305562e+02
0.000102313    	(1.5080844e-03 -1.1919833e-02 -3.3501228e-03)	9.9909717e+04	2.9305566e+02
0.000102616    	(1.5932264e-03 -1.1707608e-02 -3.5774645e-03)	9.9910302e+04	2.9305538e+02
0.000102918    	(1.6608580e-03 -1.1365949e-02 -3.7806821e-03)	9.9910919e+04	2.9305592e+02
0.000103221    	(1.7329451e-03 -1.0952592e-02 -3.9891293e-03)	9.9911756e+04	2.9305685e+02