# Region type : patch wOutlet
# Faces  :     856
# Area   :     7.7968050e-05
# Time         	sum(phi)
0              	0.0000000e+00
4.84226e-07    	3.9185070e-04
9.11553e-07    	4.6500385e-04
1.34502e-06    	4.5334384e-04
1.77906e-06    	4.2975094e-04
2.21287e-06    	4.1173890e-04
2.64549e-06    	4.0028963e-04
3.07543e-06    	3.9353095e-04
3.50377e-06    	3.9007806e-04
3.93083e-06    	3.8860877e-04
4.35662e-06    	3.8798053e-04
4.78118e-06    	3.8766578e-04
5.20455e-06    	3.8725016e-04
5.62692e-06    	3.8648043e-04
6.04855e-06    	3.8539616e-04
6.46975e-06    	3.8406392e-04
6.89092e-06    	3.8254108e-04
7.31239e-06    	3.8114246e-04
7.73458e-06    	3.7994426e-04
8.15777e-06    	3.7894941e-04
8.58227e-06    	3.7825360e-04
9.00825e-06    	3.7786936e-04
9.4358e-06     	3.7780932e-04
9.86479e-06    	3.7801780e-04
1.02951e-05    	3.7842770e-04
1.07265e-05    	3.7904162e-04
1.11588e-05    	3.7985200e-04
1.15919e-05    	3.8075907e-04
1.20257e-05    	3.8167081e-04
1.24603e-05    	3.8254417e-04
1.28952e-05    	3.8335001e-04
1.333e-05      	3.8409674e-04
1.37645e-05    	3.8479891e-04
1.4197e-05     	3.8546299e-04
1.46269e-05    	3.8609026e-04
1.50544e-05    	3.8668082e-04
1.54806e-05    	3.8724649e-04
1.59055e-05    	3.8780367e-04
1.63294e-05    	3.8837703e-04
1.67524e-05    	3.8898462e-04
1.7175e-05     	3.8964153e-04
1.75975e-05    	3.9035447e-04
1.802e-05      	3.9111585e-04
1.84427e-05    	3.9190921e-04
1.8866e-05     	3.9270909e-04
1.929e-05      	3.9348275e-04
1.97149e-05    	3.9419975e-04
2.0141e-05     	3.9483883e-04
2.05682e-05    	3.9539281e-04
2.09964e-05    	3.9586251e-04
2.14256e-05    	3.9625120e-04
2.18555e-05    	3.9655452e-04
2.2286e-05     	3.9676833e-04
2.27172e-05    	3.9688809e-04
2.3149e-05     	3.9691135e-04
2.35812e-05    	3.9684279e-04
2.40137e-05    	3.9668675e-04
2.44461e-05    	3.9644716e-04
2.48778e-05    	3.9612955e-04
2.53088e-05    	3.9573848e-04
2.57389e-05    	3.9527571e-04
2.61682e-05    	3.9474218e-04
2.65963e-05    	3.9414659e-04
2.70233e-05    	3.9350642e-04
2.7449e-05     	3.9284554e-04
2.78734e-05    	3.9219289e-04
2.82966e-05    	3.9157975e-04
2.87189e-05    	3.9102920e-04
2.91407e-05    	3.9055944e-04
2.95624e-05    	3.9017829e-04
2.99844e-05    	3.8988945e-04
3.04069e-05    	3.8969366e-04
3.08304e-05    	3.8958568e-04
3.12553e-05    	3.8956004e-04
3.16817e-05    	3.8960978e-04
3.21097e-05    	3.8972718e-04
3.25391e-05    	3.8990383e-04
3.29699e-05    	3.9013324e-04
3.34017e-05    	3.9041037e-04
3.38345e-05    	3.9073550e-04
3.42677e-05    	3.9111220e-04
3.47007e-05    	3.9154793e-04
3.51333e-05    	3.9205146e-04
3.55651e-05    	3.9263426e-04
3.59963e-05    	3.9330929e-04
3.64268e-05    	3.9408324e-04
3.68566e-05    	3.9496685e-04
3.72856e-05    	3.9597566e-04
3.77135e-05    	3.9712859e-04
3.81408e-05    	3.9844828e-04
3.85677e-05    	3.9996044e-04
3.89944e-05    	4.0169167e-04
3.94213e-05    	4.0367938e-04
3.98486e-05    	4.0599441e-04
4.02764e-05    	4.0873209e-04
4.07049e-05    	4.1201173e-04
4.1134e-05     	4.1596482e-04
4.15638e-05    	4.2073145e-04
4.19942e-05    	4.2640948e-04
4.24252e-05    	4.3301055e-04
4.28566e-05    	4.4048472e-04
4.32884e-05    	4.4874515e-04
4.37207e-05    	4.5764505e-04
4.41533e-05    	4.6701878e-04
4.45862e-05    	4.7670124e-04
4.50196e-05    	4.8653148e-04
4.54532e-05    	4.9635831e-04
4.58872e-05    	5.0606284e-04
4.63207e-05    	5.1549322e-04
4.67533e-05    	5.2451366e-04
4.7185e-05     	5.3304907e-04
4.76158e-05    	5.4105660e-04
4.80458e-05    	5.4848777e-04
4.84747e-05    	5.5530453e-04
4.89025e-05    	5.6148745e-04
4.93292e-05    	5.6703948e-04
4.97549e-05    	5.7198114e-04
5.01796e-05    	5.7634417e-04
5.06037e-05    	5.8014469e-04
5.10274e-05    	5.8340356e-04
5.14512e-05    	5.8616223e-04
5.18754e-05    	5.8848241e-04
5.23e-05       	5.9043704e-04
5.27252e-05    	5.9209885e-04
5.31511e-05    	5.9352933e-04
5.35776e-05    	5.9477113e-04
5.40048e-05    	5.9583211e-04
5.44325e-05    	5.9670899e-04
5.48603e-05    	5.9740752e-04
5.52879e-05    	5.9793482e-04
5.57147e-05    	5.9829407e-04
5.61404e-05    	5.9848082e-04
5.65653e-05    	5.9848391e-04
5.69896e-05    	5.9830646e-04
5.7413e-05     	5.9797244e-04
5.78356e-05    	5.9752388e-04
5.82573e-05    	5.9700961e-04
5.86784e-05    	5.9646827e-04
5.90991e-05    	5.9593143e-04
5.95202e-05    	5.9541897e-04
5.99424e-05    	5.9493571e-04
6.03662e-05    	5.9446909e-04
6.07916e-05    	5.9399750e-04
6.12187e-05    	5.9349808e-04
6.16474e-05    	5.9295756e-04
6.20776e-05    	5.9237523e-04
6.25093e-05    	5.9175276e-04
6.29423e-05    	5.9109743e-04
6.33765e-05    	5.9042268e-04
6.3812e-05     	5.8973560e-04
6.42487e-05    	5.8904693e-04
6.46864e-05    	5.8836895e-04
6.51252e-05    	5.8769735e-04
6.55648e-05    	5.8702657e-04
6.60053e-05    	5.8636232e-04
6.64463e-05    	5.8571301e-04
6.68871e-05    	5.8509030e-04
6.73271e-05    	5.8450419e-04
6.77661e-05    	5.8396112e-04
6.82034e-05    	5.8346463e-04
6.86389e-05    	5.8301454e-04
6.90726e-05    	5.8261123e-04
6.95044e-05    	5.8225230e-04
6.99346e-05    	5.8193018e-04
7.03631e-05    	5.8163738e-04
7.07899e-05    	5.8136727e-04
7.12152e-05    	5.8111801e-04
7.16391e-05    	5.8089075e-04
7.20618e-05    	5.8068749e-04
7.24838e-05    	5.8050711e-04
7.29052e-05    	5.8035123e-04
7.33263e-05    	5.8022315e-04
7.37473e-05    	5.8012579e-04
7.41684e-05    	5.8005913e-04
7.45901e-05    	5.8001750e-04
7.50123e-05    	5.7998951e-04
7.54353e-05    	5.7997362e-04
7.58591e-05    	5.7996941e-04
7.62837e-05    	5.7997204e-04
7.67091e-05    	5.7997256e-04
7.71346e-05    	5.7996378e-04
7.75594e-05    	5.7993766e-04
7.79836e-05    	5.7988732e-04
7.8407e-05     	5.7981120e-04
7.88294e-05    	5.7970826e-04
7.92506e-05    	5.7957695e-04
7.96705e-05    	5.7941526e-04
8.00894e-05    	5.7921907e-04
8.05076e-05    	5.7898548e-04
8.09257e-05    	5.7871222e-04
8.13446e-05    	5.7839810e-04
8.1765e-05     	5.7804102e-04
8.21872e-05    	5.7764086e-04
8.26112e-05    	5.7720042e-04
8.30369e-05    	5.7672213e-04
8.34642e-05    	5.7621340e-04
8.38934e-05    	5.7568468e-04
8.43242e-05    	5.7514520e-04
8.47564e-05    	5.7460608e-04
8.51899e-05    	5.7407591e-04
8.56246e-05    	5.7356010e-04
8.60603e-05    	5.7306257e-04
8.6497e-05     	5.7258966e-04
8.69346e-05    	5.7214563e-04
8.7373e-05     	5.7173682e-04
8.78122e-05    	5.7136916e-04
8.82521e-05    	5.7104668e-04
8.86925e-05    	5.7077245e-04
8.91328e-05    	5.7054743e-04
8.95727e-05    	5.7037060e-04
9.0012e-05     	5.7024056e-04
9.04504e-05    	5.7015523e-04
9.08879e-05    	5.7011174e-04
9.13244e-05    	5.7010626e-04
9.17599e-05    	5.7013415e-04
9.21944e-05    	5.7019167e-04
9.26278e-05    	5.7027673e-04
9.30601e-05    	5.7038498e-04
9.34912e-05    	5.7051164e-04
9.39212e-05    	5.7065162e-04
9.43503e-05    	5.7079947e-04
9.47786e-05    	5.7094941e-04
9.52062e-05    	5.7109766e-04
9.56334e-05    	5.7124324e-04
9.60605e-05    	5.7138642e-04
9.64875e-05    	5.7152603e-04
9.69147e-05    	5.7165892e-04
9.73423e-05    	5.7178112e-04
9.77704e-05    	5.7188838e-04
9.81991e-05    	5.7197698e-04
9.86283e-05    	5.7204272e-04
9.9058e-05     	5.7208144e-04
9.94879e-05    	5.7209020e-04
9.99179e-05    	5.7206762e-04
0.000100348    	5.7201419e-04
0.000100777    	5.7193123e-04
0.000101204    	5.7181923e-04
0.000101629    	5.7167932e-04
0.000102052    	5.7151287e-04
0.000102474    	5.7132137e-04
0.000102895    	5.7110823e-04
0.000103315    	5.7087977e-04
0.000103735    	5.7064287e-04
0.000104156    	5.7040432e-04
0.000104577    	5.7017136e-04
0.000105       	5.6995111e-04
0.000105423    	5.6974994e-04
0.000105848    	5.6957144e-04
0.000106275    	5.6941708e-04
0.000106703    	5.6928866e-04
0.000107133    	5.6918665e-04
0.000107564    	5.6911182e-04
0.000107996    	5.6906458e-04
0.00010843     	5.6904495e-04
0.000108865    	5.6905246e-04
0.000109301    	5.6908642e-04
0.000109738    	5.6914618e-04
0.000110175    	5.6923074e-04
0.000110613    	5.6933903e-04
0.000111052    	5.6946924e-04
0.00011149     	5.6961932e-04
0.000111928    	5.6978827e-04
0.000112366    	5.6997570e-04
0.000112803    	5.7017993e-04
0.000113239    	5.7039639e-04
0.000113674    	5.7061782e-04
0.000114108    	5.7083529e-04
0.000114541    	5.7103947e-04
0.000114973    	5.7122164e-04
0.000115405    	5.7137299e-04
0.000115835    	5.7148336e-04
0.000116264    	5.7154036e-04
0.000116691    	5.7153182e-04
0.000117117    	5.7144467e-04
0.000117541    	5.7126210e-04
0.000117965    	5.7096797e-04
0.000118388    	5.7053428e-04
0.000118812    	5.6992077e-04
0.000119235    	5.6908073e-04
0.000119659    	5.6796877e-04
0.000120083    	5.6654646e-04
0.000120508    	5.6478942e-04
0.000120934    	5.6267867e-04
0.000121361    	5.6020228e-04
0.00012179     	5.5735911e-04
0.000122219    	5.5416121e-04
0.000122649    	5.5062215e-04
0.00012308     	5.4675619e-04
0.000123511    	5.4258043e-04
0.000123942    	5.3811800e-04
0.000124374    	5.3339486e-04
0.000124804    	5.2843223e-04
0.000125235    	5.2327212e-04
0.000125665    	5.1794375e-04
0.000126094    	5.1248850e-04
0.000126523    	5.0696477e-04
0.000126951    	5.0140298e-04
0.000127379    	4.9585248e-04
0.000127806    	4.9035808e-04
0.000128232    	4.8494285e-04
0.000128657    	4.7965024e-04
0.000129082    	4.7450073e-04
0.000129506    	4.6952709e-04
0.000129931    	4.6475074e-04
0.000130357    	4.6018789e-04
0.000130783    	4.5586267e-04
0.00013121     	4.5178078e-04
0.000131639    	4.4795286e-04
0.000132069    	4.4439392e-04
0.0001325      	4.4111826e-04
0.000132932    	4.3812223e-04
0.000133366    	4.3540332e-04
0.000133801    	4.3293176e-04
0.000134236    	4.3065908e-04
0.000134671    	4.2853680e-04
0.000135106    	4.2652609e-04
0.000135541    	4.2459334e-04
0.000135974    	4.2270473e-04
0.000136407    	4.2084177e-04
0.000136837    	4.1898981e-04
0.000137266    	4.1713136e-04
0.000137693    	4.1526023e-04
0.000138118    	4.1337528e-04
0.000138541    	4.1148574e-04
0.000138963    	4.0960921e-04
0.000139384    	4.0776845e-04
0.000139805    	4.0596965e-04
0.000140226    	4.0420151e-04
0.000140647    	4.0243808e-04
0.00014107     	4.0064207e-04
0.000141493    	3.9877806e-04
0.000141918    	3.9681808e-04
0.000142345    	3.9475542e-04
0.000142773    	3.9260734e-04
0.000143202    	3.9042395e-04
0.000143632    	3.8827229e-04
0.000144063    	3.8620885e-04
0.000144495    	3.8428393e-04
0.000144928    	3.8253112e-04
0.000145359    	3.8101095e-04
0.000145791    	3.7977058e-04
0.000146221    	3.7884800e-04
0.00014665     	3.7827282e-04
0.000147079    	3.7806926e-04
0.000147507    	3.7820287e-04
0.000147934    	3.7857070e-04
0.000148361    	3.7908152e-04
0.000148787    	3.7970218e-04
0.000149214    	3.8044519e-04
0.00014964     	3.8134897e-04
0.000150065    	3.8243890e-04
0.00015049     	3.8371081e-04
0.000150914    	3.8514718e-04
0.000151338    	3.8668694e-04
0.000151762    	3.8824858e-04
0.000152187    	3.8975615e-04
0.000152612    	3.9117246e-04
0.000153038    	3.9248778e-04
0.000153465    	3.9367680e-04
0.000153893    	3.9471029e-04
0.000154322    	3.9553960e-04
0.000154752    	3.9611735e-04
0.000155183    	3.9641552e-04
0.000155614    	3.9643898e-04
0.000156047    	3.9625498e-04
0.00015648     	3.9594797e-04
0.000156913    	3.9553696e-04
0.000157345    	3.9499554e-04
0.000157777    	3.9428355e-04
0.000158208    	3.9334173e-04
0.000158638    	3.9212907e-04
0.000159068    	3.9064396e-04
0.000159497    	3.8891272e-04
0.000159926    	3.8697591e-04
0.000160354    	3.8489103e-04
0.000160781    	3.8273348e-04
0.000161206    	3.8058315e-04
0.000161631    	3.7846179e-04
0.000162055    	3.7641082e-04
0.000162479    	3.7446826e-04
0.000162904    	3.7265990e-04
0.000163328    	3.7100225e-04
0.000163754    	3.6952536e-04
0.00016418     	3.6829374e-04
0.000164608    	3.6735425e-04
0.000165037    	3.6669188e-04
0.000165468    	3.6624446e-04
0.000165899    	3.6594295e-04
0.000166332    	3.6574082e-04
0.000166765    	3.6561158e-04
0.000167199    	3.6552124e-04
0.000167633    	3.6542282e-04
0.000168067    	3.6527000e-04
0.000168501    	3.6500000e-04
0.000168933    	3.6455584e-04
0.000169366    	3.6389803e-04
0.000169797    	3.6301360e-04
0.000170227    	3.6190102e-04
0.000170657    	3.6055792e-04
0.000171086    	3.5897623e-04
0.000171513    	3.5715478e-04
0.000171941    	3.5510822e-04
0.000172368    	3.5285581e-04
0.000172795    	3.5040369e-04
0.000173223    	3.4772221e-04
0.000173651    	3.4477021e-04
0.00017408     	3.4152109e-04
0.00017451     	3.3792197e-04
0.000174941    	3.3394961e-04
0.000175373    	3.2962506e-04
0.000175806    	3.2499286e-04
0.00017624     	3.2010390e-04
0.000176675    	3.1500038e-04
0.000177111    	3.0972615e-04
0.000177547    	3.0437409e-04
0.000177985    	2.9901149e-04
0.000178422    	2.9372605e-04
0.000178859    	2.8857087e-04
0.000179295    	2.8360540e-04
0.00017973     	2.7884358e-04
0.000180165    	2.7426731e-04
0.000180598    	2.6992292e-04
0.000181031    	2.6586538e-04
0.000181463    	2.6211157e-04
0.000181894    	2.5865208e-04
0.000182323    	2.5546450e-04
0.000182751    	2.5255216e-04
0.000183178    	2.4991019e-04
0.000183602    	2.4751757e-04
0.000184026    	2.4534271e-04
0.000184448    	2.4333010e-04
0.000184869    	2.4142985e-04
0.00018529     	2.3959471e-04
0.000185712    	2.3778784e-04
0.000186133    	2.3598683e-04
0.000186555    	2.3418558e-04
0.000186978    	2.3237865e-04
0.000187401    	2.3055506e-04
0.000187825    	2.2870794e-04
0.00018825     	2.2683429e-04
0.000188675    	2.2492693e-04
0.0001891      	2.2297370e-04
0.000189525    	2.2096805e-04
0.000189948    	2.1890054e-04
0.000190371    	2.1675407e-04
0.000190792    	2.1450688e-04
0.000191212    	2.1214499e-04
0.000191632    	2.0966181e-04
0.00019205     	2.0703716e-04
0.00019247     	2.0426368e-04
0.00019289     	2.0135498e-04
0.000193312    	1.9834013e-04
0.000193735    	1.9536724e-04
0.000194161    	1.9238435e-04
0.000194588    	1.8911055e-04
0.000195017    	1.8559517e-04
0.000195448    	1.8207834e-04
0.000195881    	1.7852496e-04
0.000196316    	1.7490040e-04
0.000196752    	1.7126307e-04
0.00019719     	1.6758587e-04
0.000197628    	1.6393351e-04
0.000198067    	1.6026797e-04
0.000198508    	1.5661066e-04
0.000198948    	1.5296797e-04
0.000199389    	1.4940177e-04
0.00019983     	1.4563407e-04
0.000200271    	1.4190342e-04
0.000200711    	1.3841180e-04
0.000201151    	1.3489265e-04
0.00020159     	1.3151334e-04
0.000202029    	1.2814140e-04
0.000202466    	1.2499886e-04
0.000202902    	1.2196583e-04
0.000203338    	1.1899188e-04
0.000203772    	1.1623284e-04
0.000204205    	1.1377103e-04
0.000204636    	1.1133594e-04
0.000205067    	1.0910183e-04
0.000205497    	1.0698747e-04
0.000205927    	1.0499447e-04
0.000206355    	1.0317695e-04
0.000206784    	1.0161479e-04
0.000207212    	1.0018139e-04
0.00020764     	9.8704459e-05
0.000208068    	9.7388498e-05
0.000208495    	9.6246310e-05
0.000208922    	9.5188314e-05
0.000209348    	9.4141294e-05
0.000209774    	9.3047187e-05
0.000210199    	9.1948871e-05
0.000210622    	9.0908600e-05
0.000211045    	8.9706122e-05
0.000211467    	8.8477064e-05
0.000211887    	8.7323952e-05
0.000212306    	8.6187722e-05
0.000212723    	8.4810456e-05
0.000213139    	8.3291280e-05
0.000213554    	8.1632495e-05
0.000213968    	8.0199345e-05
0.000214382    	7.8775399e-05
0.000214797    	7.7053815e-05
0.000215213    	7.5016910e-05
0.00021563     	7.3018153e-05
0.00021605     	7.1013170e-05
0.000216471    	6.8860354e-05
0.000216894    	6.6765301e-05
0.000217319    	6.4421186e-05
0.000217745    	6.2039049e-05
0.000218174    	6.0016084e-05
0.000218604    	5.8401819e-05
0.000219035    	5.7137900e-05
0.000219468    	5.6547232e-05
0.000219902    	5.6335063e-05
0.000220338    	5.5455484e-05
0.000220774    	5.3801221e-05
0.000221212    	5.1719732e-05
0.000221651    	5.0739079e-05
0.000222089    	5.0256081e-05
0.000222527    	4.9741717e-05
0.000222965    	4.8943296e-05
0.000223402    	4.8450157e-05
0.000223839    	4.7959257e-05
0.000224274    	4.7980136e-05
0.000224709    	4.7559479e-05
0.000225143    	4.7301737e-05
0.000225576    	4.6987240e-05
0.000226008    	4.6627785e-05
0.000226439    	4.6323196e-05
0.000226869    	4.6160576e-05
0.000227297    	4.6189311e-05
0.000227724    	4.6443614e-05
0.000228149    	4.6950762e-05
0.000228572    	4.7525657e-05
0.000228995    	4.8124970e-05
0.000229417    	4.8764934e-05
0.00022984     	4.9447187e-05
0.000230262    	5.0178621e-05
0.000230685    	5.0945311e-05
0.000231109    	5.1705743e-05
0.000231535    	5.2393276e-05
0.000231961    	5.2946812e-05
0.000232389    	5.3317070e-05
0.000232817    	5.3467196e-05
0.000233246    	5.3397578e-05
0.000233676    	5.3216159e-05
0.000234105    	5.3018432e-05
0.000234534    	5.3318043e-05
0.000234961    	5.3450108e-05
0.000235388    	5.2691374e-05
0.000235813    	5.1656293e-05
0.000236238    	5.0909892e-05
0.000236663    	5.0628450e-05
0.000237088    	5.0730801e-05
0.000237512    	5.1094734e-05
0.000237937    	5.1531344e-05
0.000238362    	5.2654908e-05
0.000238788    	5.4975793e-05
0.000239213    	5.7836955e-05
0.000239639    	6.0808436e-05
0.000240065    	6.2985977e-05
0.000240491    	6.4720299e-05
0.000240917    	6.6713934e-05
0.000241343    	6.9168680e-05
0.000241769    	7.2098590e-05
0.000242197    	7.5483857e-05
0.000242625    	7.9313204e-05
0.000243055    	8.3561827e-05
0.000243485    	8.8220841e-05
0.000243917    	9.3296317e-05
0.00024435     	9.8771621e-05
0.000244783    	1.0468201e-04
0.000245218    	1.1102894e-04
0.000245653    	1.1774727e-04
0.000246089    	1.2475524e-04
0.000246524    	1.3196431e-04
0.000246958    	1.3927177e-04
0.000247391    	1.4655453e-04
0.000247822    	1.5371630e-04
0.000248253    	1.6065789e-04
0.000248682    	1.6732027e-04
0.00024911     	1.7367385e-04
0.000249537    	1.7972000e-04
0.000249962    	1.8547371e-04
0.000250386    	1.9095129e-04
0.000250809    	1.9619296e-04
0.000251231    	2.0124877e-04
0.000251652    	2.0615983e-04
0.000252074    	2.1095906e-04
0.000252496    	2.1567164e-04
0.000252919    	2.2031918e-04
0.000253343    	2.2493633e-04
0.000253767    	2.2952282e-04
0.000254194    	2.3407955e-04
0.000254621    	2.3862026e-04
0.00025505     	2.4319474e-04
0.00025548     	2.4783141e-04
0.000255911    	2.5252924e-04
0.000256342    	2.5726955e-04
0.000256774    	2.6202485e-04
0.000257207    	2.6679540e-04
0.000257638    	2.7157934e-04
0.00025807     	2.7638882e-04
0.0002585      	2.8122824e-04
0.00025893     	2.8610183e-04
0.00025936     	2.9100577e-04
0.000259789    	2.9593699e-04
0.000260218    	3.0088843e-04
0.000260647    	3.0585202e-04
0.000261076    	3.1081817e-04
0.000261505    	3.1577923e-04
0.000261935    	3.2072928e-04
0.000262365    	3.2565910e-04
0.000262796    	3.3057259e-04
0.000263227    	3.3547827e-04
0.000263659    	3.4037823e-04
0.000264091    	3.4527602e-04
0.000264523    	3.5019217e-04
0.000264956    	3.5513451e-04
0.000265389    	3.6010564e-04
0.000265821    	3.6511382e-04
0.000266254    	3.7017583e-04
0.000266686    	3.7529858e-04
0.000267118    	3.8046187e-04
0.00026755     	3.8565239e-04
0.000267982    	3.9085459e-04
0.000268415    	3.9604302e-04
0.000268847    	4.0118544e-04
0.00026928     	4.0624365e-04
0.000269712    	4.1118139e-04
0.000270143    	4.1597046e-04
0.000270573    	4.2058105e-04
0.000271002    	4.2498251e-04
0.00027143     	4.2914514e-04
0.000271858    	4.3303630e-04
0.000272284    	4.3661097e-04
0.00027271     	4.3982513e-04
0.000273135    	4.4265398e-04
0.00027356     	4.4510774e-04
0.000273985    	4.4719678e-04
0.00027441     	4.4893118e-04
0.000274835    	4.5031216e-04
0.000275261    	4.5137209e-04
0.000275688    	4.5211369e-04
0.000276115    	4.5256781e-04
0.000276544    	4.5274059e-04
0.000276973    	4.5267726e-04
0.000277403    	4.5239305e-04
0.000277833    	4.5189863e-04
0.000278264    	4.5119567e-04
0.000278695    	4.5029822e-04
0.000279125    	4.4923216e-04
0.000279556    	4.4805321e-04
0.000279986    	4.4684401e-04
0.000280415    	4.4570199e-04
0.000280844    	4.4472248e-04
0.000281273    	4.4399946e-04
0.000281701    	4.4361391e-04
0.000282128    	4.4363732e-04
0.000282555    	4.4407830e-04
0.000282981    	4.4491727e-04
0.000283406    	4.4615057e-04
0.000283831    	4.4778619e-04
0.000284257    	4.4984166e-04
0.000284683    	4.5234133e-04
0.000285111    	4.5531600e-04
0.00028554     	4.5877709e-04
0.00028597     	4.6275998e-04
0.000286402    	4.6729188e-04
0.000286834    	4.7234960e-04
0.000287267    	4.7784421e-04
0.000287702    	4.8362671e-04
0.000288137    	4.8955846e-04
0.000288572    	4.9551596e-04
0.000289009    	5.0140480e-04
0.000289445    	5.0711507e-04
0.000289883    	5.1252406e-04
0.00029032     	5.1755219e-04
0.000290756    	5.2217269e-04
0.000291192    	5.2639254e-04
0.000291626    	5.3022876e-04
0.000292059    	5.3368880e-04
0.000292491    	5.3673516e-04
0.000292922    	5.3932094e-04
0.000293352    	5.4143496e-04
0.00029378     	5.4312016e-04
0.000294206    	5.4439547e-04
0.00029463     	5.4529610e-04
0.000295052    	5.4584786e-04
0.000295474    	5.4612199e-04
0.000295895    	5.4623833e-04
0.000296315    	5.4625958e-04
0.000296736    	5.4624069e-04
0.000297157    	5.4622516e-04
0.000297578    	5.4626811e-04
0.000298       	5.4643325e-04
0.000298423    	5.4677586e-04
0.000298847    	5.4731001e-04
0.000299273    	5.4807110e-04
0.000299699    	5.4911026e-04
0.000300126    	5.5042431e-04
0.000300553    	5.5199756e-04
0.000300979    	5.5381134e-04
0.000301405    	5.5585332e-04
0.000301829    	5.5814826e-04
0.000302253    	5.6073373e-04
0.000302675    	5.6362732e-04
0.000303096    	5.6682491e-04
0.000303516    	5.7030960e-04
0.000303935    	5.7405612e-04
0.000304353    	5.7802566e-04
0.000304772    	5.8216518e-04
0.000305193    	5.8643046e-04
0.000305615    	5.9074051e-04
0.000306039    	5.9501676e-04
0.000306464    	5.9917936e-04
0.000306892    	6.0317054e-04
0.000307321    	6.0698772e-04
0.000307752    	6.1061458e-04
0.000308185    	6.1403272e-04
0.00030862     	6.1724213e-04
0.000309055    	6.2024677e-04
0.000309492    	6.2303234e-04
0.00030993     	6.2559370e-04
0.000310369    	6.2793387e-04
0.000310808    	6.3002542e-04
0.000311249    	6.3183432e-04
0.000311689    	6.3334015e-04
0.00031213     	6.3453216e-04
0.00031257     	6.3538431e-04
0.00031301     	6.3590732e-04
0.000313448    	6.3610320e-04
0.000313885    	6.3597609e-04
0.000314321    	6.3557811e-04
0.000314756    	6.3497821e-04
0.000315189    	6.3423149e-04
0.000315621    	6.3338599e-04
0.000316051    	6.3245839e-04
0.000316481    	6.3144663e-04
0.000316908    	6.3038189e-04
0.000317334    	6.2929847e-04
0.000317759    	6.2822165e-04
0.000318182    	6.2719982e-04
0.000318604    	6.2627372e-04
0.000319026    	6.2549663e-04
0.000319448    	6.2492887e-04
0.000319869    	6.2462842e-04
0.000320292    	6.2464528e-04
0.000320715    	6.2501492e-04
0.000321138    	6.2575969e-04
0.000321563    	6.2688977e-04
0.000321989    	6.2840740e-04
0.000322416    	6.3031186e-04
0.000322843    	6.3260894e-04
0.00032327     	6.3530706e-04
0.000323697    	6.3840644e-04
0.000324123    	6.4190262e-04
0.000324547    	6.4577259e-04
0.000324971    	6.4998474e-04
0.000325394    	6.5449432e-04
0.000325817    	6.5925201e-04
0.00032624     	6.6416162e-04
0.000326664    	6.6910310e-04
0.000327088    	6.7394887e-04
0.000327513    	6.7860406e-04
0.000327939    	6.8300669e-04
0.000328366    	6.8712961e-04
0.000328794    	6.9089619e-04
0.000329222    	6.9428093e-04
0.000329652    	6.9728149e-04
0.000330082    	6.9988662e-04
0.000330514    	7.0208595e-04
0.000330946    	7.0392378e-04
0.000331379    	7.0539805e-04
0.000331813    	7.0645369e-04
0.000332248    	7.0704197e-04
0.000332684    	7.0715055e-04
0.000333121    	7.0675709e-04
0.000333558    	7.0586086e-04
0.000333995    	7.0453317e-04
0.000334433    	7.0283449e-04
0.00033487     	7.0073760e-04
0.000335308    	6.9824954e-04
0.000335744    	6.9542006e-04
0.000336181    	6.9233422e-04
0.000336616    	6.8912871e-04
0.000337051    	6.8597365e-04
0.000337485    	6.8302724e-04
0.000337918    	6.8039804e-04
0.000338351    	6.7816790e-04
0.000338781    	6.7636944e-04
0.000339211    	6.7502887e-04
0.000339638    	6.7420758e-04
0.000340064    	6.7391377e-04
0.000340489    	6.7406441e-04
0.000340913    	6.7459991e-04
0.000341336    	6.7552309e-04
0.000341759    	6.7685234e-04
0.000342181    	6.7863117e-04
0.000342604    	6.8089502e-04
0.000343027    	6.8365040e-04
0.000343451    	6.8685804e-04
0.000343875    	6.9043089e-04
0.000344301    	6.9426585e-04
0.000344727    	6.9826424e-04
0.000345154    	7.0235117e-04
0.000345582    	7.0640259e-04
0.000346009    	7.1026507e-04
0.000346436    	7.1391027e-04
0.000346862    	7.1727495e-04
0.000347287    	7.2026639e-04
0.000347712    	7.2281685e-04
0.000348136    	7.2493032e-04
0.000348559    	7.2662606e-04
0.000348982    	7.2791156e-04
0.000349406    	7.2883307e-04
0.000349829    	7.2937319e-04
0.000350253    	7.2945977e-04
0.000350677    	7.2906161e-04
0.000351102    	7.2820034e-04
0.000351529    	7.2679724e-04
0.000351956    	7.2484419e-04
0.000352385    	7.2237599e-04
0.000352815    	7.1936756e-04
0.000353245    	7.1573164e-04
0.000353677    	7.1137434e-04
0.000354109    	7.0628301e-04
0.000354542    	7.0054834e-04
0.000354976    	6.9430295e-04
0.000355409    	6.8778022e-04
0.000355844    	6.8113860e-04
0.000356278    	6.7454310e-04
0.000356713    	6.6811030e-04
0.000357149    	6.6194125e-04
0.000357585    	6.5613102e-04
0.000358021    	6.5076118e-04
0.000358456    	6.4587806e-04
0.000358891    	6.4149590e-04
0.000359325    	6.3757311e-04
0.000359758    	6.3411151e-04
0.00036019     	6.3111493e-04
0.000360621    	6.2853282e-04
0.000361052    	6.2630332e-04
0.000361482    	6.2436417e-04
0.00036191     	6.2266658e-04
0.000362338    	6.2118867e-04
0.000362765    	6.1989388e-04
0.000363192    	6.1875046e-04
0.000363619    	6.1776444e-04
0.000364046    	6.1690553e-04
0.000364472    	6.1613038e-04
0.0003649      	6.1539005e-04
0.000365328    	6.1460912e-04
0.000365757    	6.1372856e-04
0.000366187    	6.1274381e-04
0.000366618    	6.1166775e-04
0.000367049    	6.1050468e-04
0.000367482    	6.0922436e-04
0.000367915    	6.0778170e-04
0.000368349    	6.0610062e-04
0.000368784    	6.0412169e-04
0.000369218    	6.0181448e-04
0.000369652    	5.9913569e-04
0.000370085    	5.9602684e-04
0.000370517    	5.9244637e-04
0.000370949    	5.8840464e-04
0.000371379    	5.8390828e-04
0.000371808    	5.7898072e-04
0.000372237    	5.7363134e-04
0.000372665    	5.6791793e-04
0.000373091    	5.6199628e-04
0.000373517    	5.5597154e-04
0.000373943    	5.4991484e-04
0.000374368    	5.4393837e-04
0.000374794    	5.3806400e-04
0.000375219    	5.3232792e-04
0.000375646    	5.2676553e-04
0.000376073    	5.2142827e-04
0.000376501    	5.1636864e-04
0.000376931    	5.1163392e-04
0.000377361    	5.0724714e-04
0.000377792    	5.0322374e-04
0.000378224    	4.9954673e-04
0.000378656    	4.9617995e-04
0.000379089    	4.9310969e-04
0.000379522    	4.9033030e-04
0.000379955    	4.8785037e-04
0.000380388    	4.8566630e-04
0.00038082     	4.8376329e-04
0.000381251    	4.8210717e-04
0.000381682    	4.8065863e-04
0.000382111    	4.7938753e-04
0.000382541    	4.7825341e-04
0.000382969    	4.7725110e-04
0.000383396    	4.7640319e-04
0.000383823    	4.7572190e-04
0.000384249    	4.7517360e-04
0.000384674    	4.7473553e-04
0.000385098    	4.7440018e-04
0.000385522    	4.7416213e-04
0.000385947    	4.7400766e-04
0.000386372    	4.7390861e-04
0.000386797    	4.7383215e-04
0.000387224    	4.7375893e-04
0.000387651    	4.7365718e-04
0.000388079    	4.7348641e-04
0.000388509    	4.7322997e-04
0.000388939    	4.7288376e-04
0.00038937     	4.7243278e-04
0.000389803    	4.7185593e-04
0.000390235    	4.7113766e-04
0.000390669    	4.7026584e-04
0.000391102    	4.6922818e-04
0.000391535    	4.6800327e-04
0.000391968    	4.6660072e-04
0.0003924      	4.6504796e-04
0.000392832    	4.6339053e-04
0.000393263    	4.6163226e-04
0.000393694    	4.5976055e-04
0.000394124    	4.5777420e-04
0.000394554    	4.5566579e-04
0.000394981    	4.5347666e-04
0.000395407    	4.5122425e-04
0.000395832    	4.4892586e-04
0.000396256    	4.4661630e-04
0.000396679    	4.4432107e-04
0.000397103    	4.4205856e-04
0.000397527    	4.3985017e-04
0.000397953    	4.3771291e-04
0.000398379    	4.3565738e-04
0.000398808    	4.3371109e-04
0.000399237    	4.3189857e-04
0.000399668    	4.3024087e-04
0.0004001      	4.2875337e-04
0.000400534    	4.2745677e-04
0.000400968    	4.2638164e-04
0.000401403    	4.2554223e-04
0.00040184     	4.2493426e-04
0.000402276    	4.2455839e-04
0.000402714    	4.2440501e-04
0.000403151    	4.2444700e-04
0.000403587    	4.2466633e-04
0.000404023    	4.2504833e-04
0.000404458    	4.2557659e-04
0.000404892    	4.2626661e-04
0.000405324    	4.2712551e-04
0.000405756    	4.2813806e-04
0.000406185    	4.2928798e-04
0.000406613    	4.3056546e-04
0.000407039    	4.3194841e-04
0.000407463    	4.3339769e-04
0.000407887    	4.3487216e-04
0.00040831     	4.3631863e-04
0.000408732    	4.3768712e-04
0.000409155    	4.3893394e-04
0.000409577    	4.4003285e-04
0.00041        	4.4098027e-04
0.000410424    	4.4178068e-04
0.000410849    	4.4243718e-04
0.000411274    	4.4294550e-04
0.0004117      	4.4327412e-04
0.000412126    	4.4339405e-04
0.000412553    	4.4328881e-04
0.000412979    	4.4295115e-04
0.000413405    	4.4237677e-04
0.000413829    	4.4158156e-04
0.000414252    	4.4059101e-04
0.000414674    	4.3942228e-04
0.000415095    	4.3808380e-04
0.000415516    	4.3656654e-04
0.000415937    	4.3486665e-04
0.000416361    	4.3302022e-04
0.000416785    	4.3105798e-04
0.000417211    	4.2901082e-04
0.00041764     	4.2693237e-04
0.00041807     	4.2488141e-04
0.000418502    	4.2290626e-04
0.000418936    	4.2105769e-04
0.000419371    	4.1937511e-04
0.000419808    	4.1787390e-04
0.000420246    	4.1657610e-04
0.000420685    	4.1550063e-04
0.000421125    	4.1466719e-04
0.000421565    	4.1409609e-04
0.000422005    	4.1375609e-04
0.000422445    	4.1362256e-04
0.000422885    	4.1368022e-04
0.000423324    	4.1391929e-04
0.000423763    	4.1433905e-04
0.0004242      	4.1494721e-04
0.000424637    	4.1572471e-04
0.000425072    	4.1662811e-04
0.000425507    	4.1762355e-04
0.000425941    	4.1872131e-04
0.000426375    	4.1990670e-04
0.000426808    	4.2115168e-04