# Region type : patch wOutlet
# Faces  :     856
# Area   :     7.7968050e-05
# Time         	sum(phi)
0              	0.0000000e+00
4.7259e-07     	2.8889797e-08
8.64331e-07    	3.2299128e-08
1.25607e-06    	2.9342863e-08
1.64781e-06    	2.6639555e-08
2.03955e-06    	2.5058174e-08
2.4313e-06     	2.4311885e-08
2.82304e-06    	2.4048101e-08
3.21478e-06    	2.3996895e-08
3.60652e-06    	2.4014771e-08
3.99826e-06    	2.4065875e-08
4.39e-06       	2.4155090e-08
4.78174e-06    	2.4284789e-08
5.17348e-06    	2.4445431e-08
5.56522e-06    	2.4628084e-08
5.95697e-06    	2.4830068e-08
6.34871e-06    	2.5050743e-08
6.74045e-06    	2.5287522e-08
7.13219e-06    	2.5537422e-08
7.52393e-06    	2.5798143e-08
7.91567e-06    	2.6069900e-08
8.30741e-06    	2.6353450e-08
8.69915e-06    	2.6649014e-08
9.09089e-06    	2.6956439e-08
9.48263e-06    	2.7275038e-08
9.87438e-06    	2.7603448e-08
1.02661e-05    	2.7939482e-08
1.06579e-05    	2.8280772e-08
1.10496e-05    	2.8626153e-08
1.14413e-05    	2.8975083e-08
1.18331e-05    	2.9326844e-08
1.22248e-05    	2.9680257e-08
1.26166e-05    	3.0033901e-08
1.30083e-05    	3.0386372e-08
1.34e-05       	3.0736689e-08
1.37918e-05    	3.1084642e-08
1.41835e-05    	3.1430691e-08
1.45753e-05    	3.1775372e-08
1.4967e-05     	3.2119123e-08
1.53588e-05    	3.2462216e-08
1.57505e-05    	3.2805050e-08
1.61422e-05    	3.3147484e-08
1.6534e-05     	3.3489329e-08
1.69257e-05    	3.3830787e-08
1.73175e-05    	3.4172104e-08
1.77092e-05    	3.4513168e-08
1.81009e-05    	3.4853957e-08
1.84927e-05    	3.5194799e-08
1.88844e-05    	3.5535882e-08
1.92762e-05    	3.5876973e-08
1.96679e-05    	3.6217830e-08
2.00596e-05    	3.6558580e-08
2.04514e-05    	3.6899510e-08
2.08431e-05    	3.7240792e-08
2.12349e-05    	3.7582510e-08
2.16266e-05    	3.7924736e-08
2.20184e-05    	3.8267480e-08
2.24101e-05    	3.8610674e-08
2.28018e-05    	3.8954230e-08
2.31936e-05    	3.9298057e-08
2.35853e-05    	3.9642114e-08
2.39771e-05    	3.9986416e-08
2.43688e-05    	4.0331099e-08
2.47605e-05    	4.0676325e-08
2.51523e-05    	4.1022163e-08
2.5544e-05     	4.1368789e-08
2.59358e-05    	4.1716347e-08
2.63275e-05    	4.2064813e-08
2.67192e-05    	4.2414145e-08
2.7111e-05     	4.2764457e-08
2.75027e-05    	4.3115723e-08
2.78945e-05    	4.3467772e-08
2.82862e-05    	4.3820541e-08
2.86779e-05    	4.4173991e-08
2.90697e-05    	4.4528108e-08
2.94614e-05    	4.4882718e-08
2.98532e-05    	4.5237628e-08
3.02449e-05    	4.5592746e-08
3.06367e-05    	4.5948124e-08
3.10284e-05    	4.6303648e-08
3.14201e-05    	4.6659065e-08
3.18119e-05    	4.7014046e-08
3.22036e-05    	4.7368137e-08
3.25954e-05    	4.7720777e-08
3.29871e-05    	4.8071421e-08
3.33788e-05    	4.8419348e-08
3.37706e-05    	4.8763749e-08
3.41623e-05    	4.9103587e-08
3.45541e-05    	4.9437765e-08
3.49458e-05    	4.9765035e-08
3.53375e-05    	5.0084127e-08
3.57293e-05    	5.0393267e-08
3.6121e-05     	5.0690271e-08
3.65128e-05    	5.0973130e-08
3.69045e-05    	5.1239805e-08
3.72963e-05    	5.1488051e-08
3.7688e-05     	5.1715282e-08
3.80797e-05    	5.1919235e-08
3.84715e-05    	5.2098081e-08
3.88632e-05    	5.2249480e-08
3.9255e-05     	5.2372691e-08
3.96467e-05    	5.2468534e-08
4.00384e-05    	5.2538199e-08
4.04302e-05    	5.2582689e-08
4.08219e-05    	5.2603439e-08
4.12137e-05    	5.2601920e-08
4.16054e-05    	5.2579079e-08
4.19971e-05    	5.2535872e-08
4.23889e-05    	5.2473610e-08
4.27806e-05    	5.2394051e-08
4.31724e-05    	5.2299599e-08
4.35641e-05    	5.2192931e-08
4.39559e-05    	5.2076764e-08
4.43476e-05    	5.1953768e-08
4.47393e-05    	5.1826611e-08
4.51311e-05    	5.1697827e-08
4.55228e-05    	5.1569664e-08
4.59146e-05    	5.1444051e-08
4.63063e-05    	5.1322419e-08
4.6698e-05     	5.1205630e-08
4.70898e-05    	5.1094166e-08
4.74815e-05    	5.0988294e-08
4.78733e-05    	5.0888148e-08
4.8265e-05     	5.0793835e-08
4.86567e-05    	5.0705371e-08
4.90485e-05    	5.0622651e-08
4.94402e-05    	5.0545522e-08
4.9832e-05     	5.0473955e-08
5.02237e-05    	5.0408072e-08
5.06155e-05    	5.0348041e-08
5.10072e-05    	5.0293963e-08
5.13989e-05    	5.0245888e-08
5.17907e-05    	5.0203951e-08
5.21824e-05    	5.0168326e-08
5.25742e-05    	5.0139088e-08
5.29659e-05    	5.0116195e-08
5.33576e-05    	5.0099597e-08
5.37494e-05    	5.0089164e-08
5.41411e-05    	5.0084676e-08
5.45329e-05    	5.0085843e-08
5.49246e-05    	5.0092376e-08
5.53163e-05    	5.0103961e-08
5.57081e-05    	5.0120263e-08
5.60998e-05    	5.0140952e-08
5.64916e-05    	5.0165731e-08
5.68833e-05    	5.0194308e-08
5.7275e-05     	5.0226395e-08
5.76668e-05    	5.0261683e-08
5.80585e-05    	5.0299883e-08
5.84503e-05    	5.0340715e-08
5.8842e-05     	5.0383963e-08
5.92338e-05    	5.0429390e-08
5.96255e-05    	5.0476702e-08
6.00172e-05    	5.0525598e-08
6.0409e-05     	5.0575770e-08
6.08007e-05    	5.0626931e-08
6.11925e-05    	5.0678840e-08
6.15842e-05    	5.0731276e-08
6.19759e-05    	5.0784059e-08
6.23677e-05    	5.0837017e-08
6.27594e-05    	5.0889996e-08
6.31512e-05    	5.0942839e-08
6.35429e-05    	5.0995397e-08
6.39346e-05    	5.1047536e-08
6.43264e-05    	5.1099123e-08
6.47181e-05    	5.1150025e-08
6.51099e-05    	5.1200112e-08
6.55016e-05    	5.1249261e-08
6.58934e-05    	5.1297362e-08
6.62851e-05    	5.1344312e-08
6.66768e-05    	5.1390024e-08
6.70686e-05    	5.1434417e-08
6.74603e-05    	5.1477443e-08
6.78521e-05    	5.1519066e-08
6.82438e-05    	5.1559267e-08
6.86355e-05    	5.1598053e-08
6.90273e-05    	5.1635450e-08
6.9419e-05     	5.1671495e-08
6.98108e-05    	5.1706250e-08
7.02025e-05    	5.1739766e-08
7.05942e-05    	5.1772085e-08
7.0986e-05     	5.1803262e-08
7.13777e-05    	5.1833371e-08
7.17695e-05    	5.1862410e-08
7.21612e-05    	5.1890368e-08
7.2553e-05     	5.1917438e-08
7.29447e-05    	5.1943778e-08
7.33364e-05    	5.1969182e-08
7.37282e-05    	5.1993756e-08
7.41199e-05    	5.2017917e-08
7.45117e-05    	5.2041435e-08
7.49034e-05    	5.2063855e-08
7.52951e-05    	5.2085700e-08
7.56869e-05    	5.2107432e-08
7.60786e-05    	5.2128212e-08
7.64704e-05    	5.2147833e-08
7.68621e-05    	5.2167199e-08
7.72538e-05    	5.2186276e-08
7.76456e-05    	5.2203953e-08
7.80373e-05    	5.2220474e-08
7.84291e-05    	5.2236773e-08
7.88208e-05    	5.2252284e-08
7.92126e-05    	5.2265903e-08
7.96043e-05    	5.2278287e-08
7.9996e-05     	5.2290193e-08
8.03878e-05    	5.2300676e-08
8.07795e-05    	5.2308890e-08
8.11713e-05    	5.2315787e-08
8.1563e-05     	5.2321833e-08
8.19547e-05    	5.2325870e-08
8.23465e-05    	5.2327555e-08
8.27382e-05    	5.2327984e-08
8.313e-05      	5.2327207e-08
8.35217e-05    	5.2324055e-08
8.39134e-05    	5.2318644e-08
8.43052e-05    	5.2311986e-08
8.46969e-05    	5.2303832e-08
8.50887e-05    	5.2293312e-08
8.54804e-05    	5.2280775e-08
8.58721e-05    	5.2267034e-08
8.62639e-05    	5.2251849e-08
8.66556e-05    	5.2234638e-08
8.70474e-05    	5.2215724e-08
8.74391e-05    	5.2195686e-08
8.78309e-05    	5.2174460e-08
8.82226e-05    	5.2151656e-08
8.86143e-05    	5.2127392e-08
8.90061e-05    	5.2102058e-08
8.93978e-05    	5.2075769e-08
8.97896e-05    	5.2048336e-08
9.01813e-05    	5.2019761e-08
9.0573e-05     	5.1990280e-08
9.09648e-05    	5.1960041e-08
9.13565e-05    	5.1929079e-08
9.17483e-05    	5.1897394e-08
9.214e-05      	5.1865069e-08
9.25317e-05    	5.1832266e-08
9.29235e-05    	5.1799119e-08
9.33152e-05    	5.1765651e-08
9.3707e-05     	5.1731904e-08
9.40987e-05    	5.1697990e-08
9.44905e-05    	5.1663954e-08
9.48822e-05    	5.1629919e-08
9.52739e-05    	5.1595885e-08
9.56657e-05    	5.1561933e-08
9.60574e-05    	5.1528128e-08
9.64492e-05    	5.1494514e-08
9.68409e-05    	5.1461121e-08
9.72326e-05    	5.1427973e-08
9.76244e-05    	5.1395105e-08
9.80161e-05    	5.1362540e-08
9.84079e-05    	5.1330299e-08
9.87996e-05    	5.1298400e-08
9.91913e-05    	5.1266852e-08
9.95831e-05    	5.1235691e-08
9.99748e-05    	5.1204991e-08
0.000100367    	5.1174728e-08
0.000100758    	5.1144858e-08
0.00010115     	5.1115417e-08
0.000101542    	5.1086480e-08
0.000101934    	5.1057960e-08
0.000102325    	5.1029752e-08
0.000102717    	5.1001877e-08
0.000103109    	5.0974355e-08
0.0001035      	5.0947139e-08
0.000103892    	5.0920189e-08
0.000104284    	5.0893489e-08
0.000104676    	5.0867030e-08
0.000105067    	5.0840799e-08
0.000105459    	5.0814772e-08
0.000105851    	5.0788935e-08
0.000106243    	5.0763286e-08
0.000106634    	5.0737819e-08
0.000107026    	5.0712539e-08
0.000107418    	5.0687447e-08
0.00010781     	5.0662550e-08
0.000108201    	5.0637865e-08
0.000108593    	5.0613412e-08
0.000108985    	5.0589217e-08
0.000109377    	5.0565298e-08
0.000109768    	5.0541674e-08
0.00011016     	5.0518371e-08
0.000110552    	5.0495421e-08
0.000110944    	5.0472863e-08
0.000111335    	5.0450734e-08
0.000111727    	5.0429083e-08
0.000112119    	5.0407960e-08
0.000112511    	5.0387420e-08
0.000112902    	5.0367537e-08
0.000113294    	5.0348381e-08
0.000113686    	5.0330037e-08
0.000114078    	5.0312586e-08
0.000114469    	5.0296128e-08
0.000114861    	5.0280766e-08
0.000115253    	5.0266580e-08
0.000115644    	5.0253651e-08
0.000116036    	5.0242060e-08
0.000116428    	5.0231884e-08
0.00011682     	5.0223189e-08
0.000117211    	5.0216043e-08
0.000117603    	5.0210530e-08
0.000117995    	5.0206729e-08
0.000118387    	5.0204697e-08
0.000118778    	5.0204502e-08
0.00011917     	5.0206217e-08
0.000119562    	5.0209903e-08
0.000119954    	5.0215586e-08
0.000120345    	5.0223317e-08
0.000120737    	5.0233149e-08
0.000121129    	5.0245095e-08
0.000121521    	5.0259262e-08
0.000121912    	5.0275644e-08
0.000122304    	5.0294191e-08
0.000122696    	5.0314978e-08
0.000123088    	5.0337911e-08
0.000123479    	5.0362933e-08
0.000123871    	5.0390124e-08
0.000124263    	5.0419308e-08
0.000124655    	5.0450424e-08
0.000125046    	5.0483516e-08
0.000125438    	5.0518301e-08
0.00012583     	5.0554672e-08
0.000126221    	5.0592635e-08
0.000126613    	5.0631766e-08
0.000127005    	5.0672003e-08
0.000127397    	5.0713368e-08
0.000127788    	5.0755309e-08
0.00012818     	5.0797772e-08
0.000128572    	5.0840766e-08
0.000128964    	5.0883695e-08
0.000129355    	5.0926435e-08
0.000129747    	5.0968994e-08
0.000130139    	5.1010825e-08
0.000130531    	5.1051749e-08
0.000130922    	5.1091796e-08
0.000131314    	5.1130489e-08
0.000131706    	5.1167535e-08
0.000132098    	5.1202875e-08
0.000132489    	5.1236115e-08
0.000132881    	5.1266867e-08
0.000133273    	5.1294900e-08
0.000133665    	5.1319983e-08
0.000134056    	5.1341860e-08
0.000134448    	5.1360292e-08
0.00013484     	5.1375299e-08
0.000135232    	5.1387035e-08
0.000135623    	5.1395382e-08
0.000136015    	5.1400349e-08
0.000136407    	5.1402249e-08
0.000136798    	5.1401151e-08
0.00013719     	5.1397058e-08
0.000137582    	5.1390177e-08
0.000137974    	5.1380607e-08
0.000138365    	5.1368316e-08
0.000138757    	5.1353382e-08
0.000139149    	5.1335960e-08
0.000139541    	5.1316021e-08
0.000139932    	5.1293453e-08
0.000140324    	5.1268182e-08
0.000140716    	5.1240122e-08
0.000141108    	5.1209150e-08
0.000141499    	5.1175162e-08
0.000141891    	5.1138099e-08
0.000142283    	5.1097917e-08
0.000142675    	5.1054583e-08
0.000143066    	5.1008120e-08
0.000143458    	5.0958611e-08
0.00014385     	5.0906161e-08
0.000144242    	5.0850873e-08
0.000144633    	5.0792852e-08
0.000145025    	5.0732225e-08
0.000145417    	5.0669145e-08
0.000145809    	5.0603787e-08
0.0001462      	5.0536329e-08
0.000146592    	5.0466953e-08
0.000146984    	5.0395848e-08
0.000147376    	5.0323205e-08
0.000147767    	5.0249215e-08
0.000148159    	5.0174065e-08
0.000148551    	5.0097941e-08
0.000148942    	5.0021029e-08
0.000149334    	4.9943513e-08
0.000149726    	4.9865574e-08
0.000150118    	4.9787394e-08
0.000150509    	4.9709157e-08
0.000150901    	4.9631038e-08
0.000151293    	4.9553207e-08
0.000151685    	4.9475828e-08
0.000152076    	4.9399052e-08
0.000152468    	4.9323009e-08
0.00015286     	4.9247813e-08
0.000153252    	4.9173576e-08
0.000153643    	4.9100386e-08
0.000154035    	4.9028311e-08
0.000154427    	4.8957407e-08
0.000154819    	4.8887713e-08
0.00015521     	4.8819265e-08
0.000155602    	4.8752092e-08
0.000155994    	4.8686198e-08
0.000156386    	4.8621580e-08
0.000156777    	4.8558212e-08
0.000157169    	4.8496060e-08
0.000157561    	4.8435076e-08
0.000157953    	4.8375202e-08
0.000158344    	4.8316381e-08
0.000158736    	4.8258545e-08
0.000159128    	4.8201614e-08
0.000159519    	4.8145498e-08
0.000159911    	4.8090106e-08
0.000160303    	4.8035354e-08
0.000160695    	4.7981160e-08
0.000161086    	4.7927432e-08
0.000161478    	4.7874086e-08
0.00016187     	4.7821030e-08
0.000162262    	4.7768173e-08
0.000162653    	4.7715423e-08
0.000163045    	4.7662682e-08
0.000163437    	4.7609853e-08
0.000163829    	4.7556838e-08
0.00016422     	4.7503542e-08
0.000164612    	4.7449870e-08
0.000165004    	4.7395731e-08
0.000165396    	4.7341039e-08
0.000165787    	4.7285702e-08
0.000166179    	4.7229636e-08
0.000166571    	4.7172763e-08
0.000166963    	4.7115007e-08
0.000167354    	4.7056293e-08
0.000167746    	4.6996542e-08
0.000168138    	4.6935681e-08
0.00016853     	4.6873639e-08
0.000168921    	4.6810354e-08
0.000169313    	4.6745768e-08
0.000169705    	4.6679829e-08
0.000170096    	4.6612489e-08
0.000170488    	4.6543705e-08
0.00017088     	4.6473454e-08
0.000171272    	4.6401721e-08
0.000171663    	4.6328502e-08
0.000172055    	4.6253819e-08
0.000172447    	4.6177693e-08
0.000172839    	4.6100151e-08
0.00017323     	4.6021227e-08
0.000173622    	4.5940965e-08
0.000174014    	4.5859419e-08
0.000174406    	4.5776654e-08
0.000174797    	4.5692724e-08
0.000175189    	4.5607695e-08
0.000175581    	4.5521634e-08
0.000175973    	4.5434611e-08
0.000176364    	4.5346693e-08
0.000176756    	4.5257946e-08
0.000177148    	4.5168437e-08
0.00017754     	4.5078234e-08
0.000177931    	4.4987406e-08
0.000178323    	4.4896017e-08
0.000178715    	4.4804133e-08
0.000179107    	4.4711815e-08
0.000179498    	4.4619126e-08
0.00017989     	4.4526128e-08
0.000180282    	4.4432876e-08
0.000180673    	4.4339417e-08
0.000181065    	4.4245797e-08
0.000181457    	4.4152053e-08
0.000181849    	4.4058214e-08
0.00018224     	4.3964318e-08
0.000182632    	4.3870404e-08
0.000183024    	4.3776511e-08
0.000183416    	4.3682673e-08
0.000183807    	4.3588904e-08
0.000184199    	4.3495225e-08
0.000184591    	4.3401674e-08
0.000184983    	4.3308292e-08
0.000185374    	4.3215121e-08
0.000185766    	4.3122185e-08
0.000186158    	4.3029503e-08
0.00018655     	4.2937092e-08
0.000186941    	4.2844968e-08
0.000187333    	4.2753145e-08
0.000187725    	4.2661638e-08
0.000188117    	4.2570458e-08
0.000188508    	4.2479621e-08
0.0001889      	4.2389144e-08
0.000189292    	4.2299045e-08
0.000189684    	4.2209342e-08
0.000190075    	4.2120056e-08
0.000190467    	4.2031221e-08
0.000190859    	4.1942876e-08
0.000191251    	4.1855066e-08
0.000191642    	4.1767837e-08
0.000192034    	4.1681238e-08
0.000192426    	4.1595314e-08
0.000192817    	4.1510110e-08
0.000193209    	4.1425676e-08
0.000193601    	4.1342122e-08
0.000193993    	4.1259505e-08
0.000194384    	4.1177842e-08
0.000194776    	4.1097154e-08
0.000195168    	4.1017512e-08
0.00019556     	4.0938936e-08
0.000195951    	4.0861423e-08
0.000196343    	4.0785012e-08
0.000196735    	4.0709757e-08
0.000197127    	4.0635648e-08
0.000197518    	4.0562751e-08
0.00019791     	4.0491116e-08
0.000198302    	4.0420658e-08
0.000198694    	4.0351413e-08
0.000199085    	4.0283425e-08
0.000199477    	4.0216690e-08
0.000199869    	4.0151197e-08
0.000200261    	4.0086928e-08
0.000200652    	4.0023856e-08
0.000201044    	3.9961958e-08
0.000201436    	3.9901210e-08
0.000201828    	3.9841608e-08
0.000202219    	3.9783185e-08
0.000202611    	3.9725953e-08
0.000203003    	3.9669895e-08
0.000203394    	3.9614983e-08
0.000203786    	3.9561182e-08
0.000204178    	3.9508435e-08
0.00020457     	3.9456677e-08
0.000204961    	3.9405866e-08
0.000205353    	3.9355988e-08
0.000205745    	3.9306986e-08
0.000206137    	3.9258832e-08
0.000206528    	3.9211536e-08
0.00020692     	3.9165047e-08
0.000207312    	3.9119304e-08
0.000207704    	3.9074271e-08
0.000208095    	3.9029893e-08
0.000208487    	3.8986092e-08
0.000208879    	3.8942804e-08
0.000209271    	3.8899975e-08
0.000209662    	3.8857574e-08
0.000210054    	3.8815631e-08
0.000210446    	3.8774110e-08
0.000210838    	3.8732917e-08
0.000211229    	3.8692004e-08
0.000211621    	3.8651354e-08
0.000212013    	3.8610942e-08
0.000212405    	3.8570696e-08
0.000212796    	3.8530532e-08
0.000213188    	3.8490386e-08
0.00021358     	3.8450202e-08
0.000213971    	3.8409953e-08
0.000214363    	3.8369624e-08
0.000214755    	3.8329197e-08
0.000215147    	3.8288616e-08
0.000215538    	3.8247841e-08
0.00021593     	3.8206852e-08
0.000216322    	3.8165621e-08
0.000216714    	3.8124063e-08
0.000217105    	3.8082100e-08
0.000217497    	3.8039671e-08
0.000217889    	3.7996736e-08
0.000218281    	3.7953281e-08
0.000218672    	3.7909294e-08
0.000219064    	3.7864744e-08
0.000219456    	3.7819593e-08
0.000219848    	3.7773812e-08
0.000220239    	3.7727377e-08
0.000220631    	3.7680256e-08
0.000221023    	3.7632399e-08
0.000221415    	3.7583760e-08
0.000221806    	3.7534315e-08
0.000222198    	3.7484078e-08
0.00022259     	3.7433080e-08
0.000222982    	3.7381341e-08
0.000223373    	3.7328871e-08
0.000223765    	3.7275677e-08
0.000224157    	3.7221762e-08
0.000224548    	3.7167133e-08
0.00022494     	3.7111797e-08
0.000225332    	3.7055771e-08
0.000225724    	3.6999081e-08
0.000226115    	3.6941768e-08
0.000226507    	3.6883889e-08
0.000226899    	3.6825514e-08
0.000227291    	3.6766717e-08
0.000227682    	3.6707552e-08
0.000228074    	3.6648064e-08
0.000228466    	3.6588297e-08
0.000228858    	3.6528314e-08
0.000229249    	3.6468196e-08
0.000229641    	3.6408031e-08
0.000230033    	3.6347914e-08
0.000230425    	3.6287952e-08
0.000230816    	3.6228256e-08
0.000231208    	3.6168932e-08
0.0002316      	3.6110060e-08
0.000231992    	3.6051708e-08
0.000232383    	3.5993930e-08
0.000232775    	3.5936776e-08
0.000233167    	3.5880297e-08
0.000233559    	3.5824565e-08
0.00023395     	3.5769677e-08
0.000234342    	3.5715733e-08
0.000234734    	3.5662819e-08
0.000235126    	3.5610998e-08
0.000235517    	3.5560330e-08
0.000235909    	3.5510887e-08
0.000236301    	3.5462738e-08
0.000236692    	3.5415959e-08
0.000237084    	3.5370616e-08
0.000237476    	3.5326768e-08
0.000237868    	3.5284455e-08
0.000238259    	3.5243725e-08
0.000238651    	3.5204603e-08
0.000239043    	3.5167077e-08
0.000239435    	3.5131110e-08
0.000239826    	3.5096685e-08
0.000240218    	3.5063780e-08
0.00024061     	3.5032379e-08
0.000241002    	3.5002489e-08
0.000241393    	3.4974081e-08
0.000241785    	3.4947098e-08
0.000242177    	3.4921486e-08
0.000242569    	3.4897203e-08
0.00024296     	3.4874217e-08
0.000243352    	3.4852512e-08
0.000243744    	3.4832071e-08
0.000244136    	3.4812874e-08
0.000244527    	3.4794891e-08
0.000244919    	3.4778097e-08
0.000245311    	3.4762478e-08
0.000245703    	3.4748045e-08
0.000246094    	3.4734749e-08
0.000246486    	3.4722558e-08
0.000246878    	3.4711447e-08
0.000247269    	3.4701393e-08
0.000247661    	3.4692363e-08
0.000248053    	3.4684313e-08
0.000248445    	3.4677188e-08
0.000248836    	3.4670928e-08
0.000249228    	3.4665473e-08
0.00024962     	3.4660761e-08
0.000250012    	3.4656733e-08
0.000250403    	3.4653325e-08
0.000250795    	3.4650476e-08
0.000251187    	3.4648119e-08
0.000251579    	3.4646186e-08
0.00025197     	3.4644604e-08
0.000252362    	3.4643302e-08
0.000252754    	3.4642211e-08
0.000253146    	3.4641264e-08
0.000253537    	3.4640396e-08
0.000253929    	3.4639545e-08
0.000254321    	3.4638656e-08
0.000254713    	3.4637678e-08
0.000255104    	3.4636568e-08
0.000255496    	3.4635287e-08
0.000255888    	3.4633805e-08
0.00025628     	3.4632101e-08
0.000256671    	3.4630160e-08
0.000257063    	3.4627975e-08
0.000257455    	3.4625547e-08
0.000257846    	3.4622880e-08
0.000258238    	3.4619986e-08
0.00025863     	3.4616880e-08
0.000259022    	3.4613583e-08
0.000259413    	3.4610121e-08
0.000259805    	3.4606527e-08
0.000260197    	3.4602835e-08
0.000260589    	3.4599084e-08
0.00026098     	3.4595318e-08
0.000261372    	3.4591584e-08
0.000261764    	3.4587931e-08
0.000262156    	3.4584412e-08
0.000262547    	3.4581076e-08
0.000262939    	3.4577970e-08
0.000263331    	3.4575142e-08
0.000263723    	3.4572643e-08
0.000264114    	3.4570528e-08
0.000264506    	3.4568856e-08
0.000264898    	3.4567686e-08
0.00026529     	3.4567069e-08
0.000265681    	3.4567053e-08
0.000266073    	3.4567692e-08
0.000266465    	3.4569036e-08
0.000266857    	3.4571132e-08
0.000267248    	3.4574019e-08
0.00026764     	3.4577721e-08
0.000268032    	3.4582265e-08
0.000268424    	3.4587671e-08
0.000268815    	3.4593945e-08
0.000269207    	3.4601076e-08
0.000269599    	3.4609033e-08
0.00026999     	3.4617768e-08
0.000270382    	3.4627224e-08
0.000270774    	3.4637348e-08
0.000271166    	3.4648089e-08
0.000271557    	3.4659396e-08
0.000271949    	3.4671214e-08
0.000272341    	3.4683488e-08
0.000272733    	3.4696162e-08
0.000273124    	3.4709188e-08
0.000273516    	3.4722527e-08
0.000273908    	3.4736154e-08
0.0002743      	3.4750070e-08
0.000274691    	3.4764310e-08
0.000275083    	3.4778924e-08
0.000275475    	3.4793931e-08
0.000275867    	3.4809267e-08
0.000276258    	3.4824832e-08
0.00027665     	3.4840624e-08
0.000277042    	3.4856626e-08
0.000277434    	3.4872732e-08
0.000277825    	3.4888656e-08
0.000278217    	3.4904531e-08
0.000278609    	3.4920996e-08
0.000279001    	3.4937454e-08
0.000279392    	3.4954394e-08
0.000279784    	3.4971575e-08
0.000280176    	3.4987641e-08
0.000280567    	3.5001531e-08
0.000280959    	3.5013942e-08
0.000281351    	3.5025382e-08
0.000281743    	3.5036475e-08
0.000282134    	3.5053164e-08
0.000282526    	3.5086208e-08
0.000282918    	3.5142713e-08
0.00028331     	3.5232189e-08
0.000283701    	3.5359656e-08
0.000284093    	3.5523002e-08
0.000284485    	3.5729191e-08
0.000284877    	3.6012529e-08
0.000285268    	3.6446666e-08
0.00028566     	3.7146196e-08
0.000286052    	3.8247765e-08
0.000286444    	3.9896604e-08
0.000286835    	4.2214278e-08
0.000287227    	4.5277349e-08
0.000287619    	4.9131487e-08
0.000288011    	5.3821909e-08
0.000288402    	5.9415137e-08
0.000288794    	6.5994828e-08
0.000289186    	7.3661649e-08
0.000289578    	8.2531365e-08
0.000289969    	9.2729885e-08
0.000290361    	1.0439098e-07
0.000290753    	1.1764628e-07
0.000291144    	1.3262370e-07
0.000291536    	1.4944610e-07
0.000291928    	1.6822998e-07
0.00029232     	1.8908275e-07
0.000292711    	2.1210225e-07
0.000293103    	2.3737727e-07
0.000293495    	2.6498474e-07
0.000293887    	2.9498882e-07
0.000294278    	3.2744255e-07
0.00029467     	3.6238853e-07
0.000295062    	3.9985972e-07
0.000295454    	4.3987480e-07
0.000295845    	4.8244161e-07
0.000296237    	5.2755559e-07
0.000296629    	5.7521225e-07
0.000297021    	6.2538671e-07
0.000297412    	6.7803212e-07
0.000297804    	7.3310515e-07
0.000298196    	7.9056775e-07
0.000298588    	8.5037881e-07
0.000298979    	9.1248350e-07
0.000299371    	9.7681430e-07
0.000299763    	1.0432947e-06
0.000300155    	1.1118464e-06
0.000300546    	1.1823861e-06
0.000300938    	1.2548303e-06
0.00030133     	1.3290927e-06
0.000301721    	1.4051088e-06
0.000302113    	1.4828075e-06
0.000302505    	1.5620821e-06
0.000302897    	1.6428286e-06
0.000303288    	1.7250161e-06
0.00030368     	1.8086185e-06
0.000304072    	1.8935408e-06
0.000304463    	1.9796808e-06
0.000304855    	2.0670772e-06
0.000305247    	2.1557235e-06
0.000305639    	2.2455444e-06
0.00030603     	2.3364939e-06
0.000306422    	2.4286054e-06
0.000306814    	2.5218922e-06
0.000307205    	2.6163298e-06
0.000307597    	2.7119208e-06
0.000307989    	2.8086239e-06
0.000308381    	2.9064674e-06
0.000308772    	3.0054990e-06
0.000309164    	3.1057544e-06
0.000309556    	3.2072646e-06
0.000309947    	3.3100496e-06
0.000310339    	3.4141573e-06
0.000310731    	3.5196516e-06
0.000311122    	3.6265869e-06
0.000311514    	3.7350128e-06
0.000311906    	3.8449805e-06
0.000312298    	3.9565381e-06
0.000312689    	4.0697329e-06
0.000313081    	4.1846259e-06
0.000313473    	4.3012691e-06
0.000313864    	4.4197103e-06
0.000314256    	4.5399920e-06
0.000314648    	4.6621714e-06
0.000315039    	4.7863001e-06
0.000315431    	4.9124209e-06
0.000315823    	5.0405664e-06
0.000316214    	5.1707647e-06
0.000316606    	5.3030451e-06
0.000316998    	5.4374299e-06
0.000317389    	5.5739272e-06
0.000317781    	5.7125290e-06
0.000318173    	5.8531966e-06
0.000318564    	5.9958678e-06
0.000318956    	6.1405325e-06
0.000319348    	6.2871998e-06
0.000319739    	6.4358321e-06
0.000320131    	6.5863761e-06
0.000320523    	6.7387877e-06
0.000320914    	6.8930081e-06
0.000321306    	7.0489715e-06
0.000321698    	7.2065948e-06
0.000322089    	7.3657665e-06
0.000322481    	7.5263721e-06
0.000322872    	7.6883049e-06
0.000323264    	7.8514361e-06
0.000323656    	8.0156511e-06
0.000324047    	8.1808373e-06
0.000324439    	8.3468883e-06
0.000324831    	8.5137133e-06
0.000325222    	8.6812419e-06
0.000325614    	8.8493594e-06
0.000326005    	9.0179422e-06
0.000326397    	9.1869066e-06
0.000326789    	9.3561809e-06
0.00032718     	9.5256349e-06
0.000327572    	9.6951299e-06
0.000327963    	9.8645859e-06
0.000328355    	1.0033936e-05
0.000328747    	1.0203119e-05
0.000329138    	1.0372031e-05
0.00032953     	1.0540528e-05
0.000329922    	1.0708573e-05
0.000330313    	1.0876136e-05
0.000330705    	1.1043188e-05
0.000331096    	1.1209712e-05
0.000331488    	1.1375664e-05
0.000331879    	1.1540993e-05
0.000332271    	1.1705666e-05
0.000332663    	1.1869672e-05
0.000333054    	1.2033057e-05
0.000333446    	1.2195874e-05
0.000333837    	1.2358143e-05
0.000334229    	1.2519932e-05
0.00033462     	1.2681368e-05
0.000335012    	1.2842565e-05
0.000335404    	1.3003611e-05
0.000335795    	1.3164581e-05
0.000336187    	1.3325575e-05
0.000336578    	1.3486700e-05
0.00033697     	1.3648070e-05
0.000337361    	1.3809803e-05
0.000337753    	1.3972015e-05
0.000338144    	1.4134823e-05
0.000338536    	1.4298376e-05
0.000338928    	1.4462807e-05
0.000339319    	1.4628237e-05
0.000339711    	1.4794808e-05
0.000340102    	1.4962668e-05
0.000340494    	1.5131973e-05
0.000340885    	1.5302881e-05
0.000341277    	1.5475545e-05
0.000341668    	1.5650114e-05
0.00034206     	1.5826719e-05
0.000342451    	1.6005498e-05
0.000342843    	1.6186583e-05
0.000343234    	1.6370094e-05
0.000343626    	1.6556143e-05
0.000344017    	1.6744818e-05
0.000344409    	1.6936198e-05
0.0003448      	1.7130344e-05
0.000345192    	1.7327312e-05
0.000345583    	1.7527117e-05
0.000345975    	1.7729779e-05
0.000346366    	1.7935298e-05
0.000346758    	1.8143654e-05
0.000347149    	1.8354811e-05
0.000347541    	1.8568714e-05
0.000347932    	1.8785281e-05
0.000348324    	1.9004418e-05
0.000348715    	1.9226006e-05
0.000349107    	1.9449933e-05
0.000349498    	1.9676067e-05
0.00034989     	1.9904253e-05
0.000350281    	2.0134325e-05
0.000350673    	2.0366093e-05
0.000351064    	2.0599380e-05
0.000351456    	2.0834018e-05
0.000351847    	2.1069813e-05
0.000352239    	2.1306594e-05
0.00035263     	2.1544181e-05
0.000353021    	2.1782398e-05
0.000353413    	2.2021089e-05
0.000353804    	2.2260115e-05
0.000354196    	2.2499322e-05
0.000354587    	2.2738571e-05
0.000354979    	2.2977772e-05
0.00035537     	2.3216783e-05
0.000355761    	2.3455431e-05
0.000356153    	2.3693860e-05
0.000356544    	2.3931931e-05
0.000356936    	2.4169402e-05
0.000357327    	2.4406132e-05
0.000357718    	2.4642051e-05
0.00035811     	2.4877408e-05
0.000358501    	2.5112209e-05
0.000358893    	2.5346480e-05
0.000359284    	2.5580217e-05
0.000359675    	2.5813522e-05
0.000360067    	2.6046577e-05
0.000360458    	2.6279476e-05
0.00036085     	2.6512288e-05
0.000361241    	2.6745120e-05
0.000361632    	2.6978083e-05
0.000362024    	2.7211300e-05
0.000362415    	2.7444877e-05
0.000362806    	2.7678920e-05
0.000363198    	2.7913564e-05
0.000363589    	2.8148929e-05
0.000363981    	2.8385102e-05
0.000364372    	2.8622212e-05
0.000364763    	2.8860359e-05
0.000365155    	2.9099651e-05
0.000365546    	2.9340202e-05
0.000365937    	2.9582145e-05
0.000366329    	2.9825605e-05
0.00036672     	3.0070657e-05
0.000367111    	3.0317373e-05
0.000367503    	3.0565828e-05
0.000367894    	3.0816103e-05
0.000368285    	3.1068274e-05
0.000368677    	3.1322396e-05
0.000369068    	3.1578532e-05
0.000369459    	3.1836704e-05
0.000369851    	3.2096942e-05
0.000370242    	3.2359285e-05
0.000370633    	3.2623742e-05
0.000371024    	3.2890307e-05
0.000371416    	3.3158983e-05
0.000371807    	3.3429775e-05
0.000372198    	3.3702667e-05
0.00037259     	3.3977666e-05
0.000372981    	3.4254764e-05
0.000373372    	3.4533944e-05
0.000373763    	3.4815167e-05
0.000374155    	3.5098374e-05
0.000374546    	3.5383503e-05
0.000374937    	3.5670507e-05
0.000375328    	3.5959327e-05
0.00037572     	3.6249883e-05
0.000376111    	3.6542101e-05
0.000376502    	3.6835927e-05
0.000376893    	3.7131294e-05
0.000377285    	3.7428113e-05
0.000377676    	3.7726322e-05
0.000378067    	3.8025852e-05
0.000378458    	3.8326641e-05
0.00037885     	3.8628633e-05
0.000379241    	3.8931769e-05
0.000379632    	3.9235958e-05
0.000380023    	3.9541140e-05
0.000380414    	3.9847243e-05
0.000380806    	4.0154203e-05
0.000381197    	4.0461960e-05
0.000381588    	4.0770457e-05
0.000381979    	4.1079622e-05
0.00038237     	4.1389445e-05
0.000382762    	4.1699915e-05
0.000383153    	4.2011016e-05
0.000383544    	4.2322747e-05
0.000383935    	4.2635121e-05
0.000384326    	4.2948148e-05
0.000384717    	4.3261883e-05
0.000385109    	4.3576364e-05
0.0003855      	4.3891621e-05
0.000385891    	4.4207754e-05
0.000386282    	4.4524844e-05
0.000386673    	4.4842910e-05
0.000387064    	4.5162038e-05
0.000387455    	4.5482339e-05
0.000387846    	4.5803905e-05
0.000388238    	4.6126807e-05
0.000388629    	4.6451120e-05
0.00038902     	4.6776951e-05
0.000389411    	4.7104403e-05
0.000389802    	4.7433570e-05