# Region type : patch wOutlet
# Faces  :     856
# Area   :     7.7968050e-05
# Time         	sum(phi)
0              	0.0000000e+00
5.10704e-07    	-1.7745340e-19
9.44831e-07    	-5.2431339e-19
1.37896e-06    	-7.2209559e-19
1.81308e-06    	-9.1267800e-19
2.24721e-06    	-1.0117809e-18
2.68134e-06    	-1.1985516e-18
3.11546e-06    	-1.3611819e-18
3.54959e-06    	-1.4454617e-18
3.98372e-06    	-1.6326560e-18
4.41784e-06    	-2.0616782e-18
4.85197e-06    	-2.1069945e-18
5.2861e-06     	-2.2234615e-18
5.72022e-06    	-2.2891065e-18
6.15435e-06    	-2.3729628e-18
6.58847e-06    	-2.5648158e-18
7.0226e-06     	-2.7719153e-18
7.45673e-06    	-3.0781177e-18
7.89085e-06    	-3.2572652e-18
8.32498e-06    	-3.6596058e-18
8.75911e-06    	-3.9933368e-18
9.19323e-06    	-4.3469731e-18
9.62736e-06    	-4.4092300e-18
1.00615e-05    	-4.5134151e-18
1.04956e-05    	-4.7548194e-18
1.09297e-05    	-4.9648836e-18
1.13639e-05    	-5.3142847e-18
1.1798e-05     	-5.5946526e-18
1.22321e-05    	-5.9457478e-18
1.26662e-05    	-6.3840873e-18
1.31004e-05    	-6.6716550e-18
1.35345e-05    	-7.1523462e-18
1.39686e-05    	-7.3488579e-18
1.44028e-05    	-7.7550101e-18
1.48369e-05    	-8.1878440e-18
1.5271e-05     	-8.4631297e-18
1.57051e-05    	-8.8328596e-18
1.61393e-05    	-9.3025393e-18
1.65734e-05    	-9.5426732e-18
1.70075e-05    	-9.9284967e-18
1.74416e-05    	-1.0484574e-17
1.78758e-05    	-1.0987711e-17
1.83099e-05    	-1.1498896e-17
1.8744e-05     	-1.2197698e-17
1.91781e-05    	-2.8035438e-13
1.96123e-05    	4.0401720e-13
2.00464e-05    	1.0385414e-12
2.04805e-05    	1.2279171e-12
2.09146e-05    	1.1691342e-12
2.13488e-05    	1.0317942e-12
2.17829e-05    	9.2914972e-13
2.2217e-05     	8.5221132e-13
2.26512e-05    	7.7820186e-13
2.30853e-05    	6.9659619e-13
2.35194e-05    	6.1125665e-13
2.39535e-05    	5.2716037e-13
2.43877e-05    	4.5709941e-13
2.48218e-05    	4.0105098e-13
2.52559e-05    	3.5797585e-13
2.569e-05      	3.1557664e-13
2.61242e-05    	2.7475746e-13
2.65583e-05    	2.3725997e-13
2.69924e-05    	1.9565952e-13
2.74265e-05    	1.5121481e-13
2.78607e-05    	1.0837091e-13
2.82948e-05    	6.4880655e-14
2.87289e-05    	1.7738357e-14
2.9163e-05     	-3.2582876e-14
2.95972e-05    	-9.0695776e-14
3.00313e-05    	-1.4745585e-13
3.04654e-05    	-2.0400851e-13
3.08996e-05    	-2.7077822e-13
3.13337e-05    	-3.2758564e-13
3.17678e-05    	-3.8866998e-13
3.22019e-05    	-4.5319875e-13
3.26361e-05    	-5.1967624e-13
3.30702e-05    	-5.8941262e-13
3.35043e-05    	-6.6147478e-13
3.39384e-05    	-7.3501365e-13
3.43726e-05    	-8.1241877e-13
3.48067e-05    	-8.7636389e-13
3.52408e-05    	-9.4897998e-13
3.56749e-05    	-1.0253854e-12
3.61091e-05    	-1.1037799e-12
3.65432e-05    	-1.1784873e-12
3.69773e-05    	-1.2560340e-12
3.74115e-05    	-1.3408895e-12
3.78456e-05    	-1.4240420e-12
3.82797e-05    	-1.5245476e-12
3.87138e-05    	-1.6336901e-12
3.9148e-05     	-1.7319073e-12
3.95821e-05    	-1.8373587e-12
4.00162e-05    	-1.9347832e-12
4.04503e-05    	-2.0526531e-12
4.08845e-05    	-2.1751659e-12
4.13186e-05    	-2.3242811e-12
4.17527e-05    	-2.4507825e-12
4.21868e-05    	-2.5891306e-12
4.2621e-05     	-2.7250203e-12
4.30551e-05    	-2.8716164e-12
4.34892e-05    	-3.0265358e-12
4.39233e-05    	-3.2148733e-12
4.43575e-05    	-3.3760475e-12
4.47916e-05    	-3.5498049e-12
4.52257e-05    	-3.7246008e-12
4.56599e-05    	-3.9089655e-12
4.6094e-05     	-4.1053015e-12
4.65281e-05    	-4.3408750e-12
4.69622e-05    	-4.5467101e-12
4.73964e-05    	-4.7516944e-12
4.78305e-05    	-4.9713615e-12
4.82646e-05    	-5.2203443e-12
4.86987e-05    	-5.4913366e-12
4.91329e-05    	-5.7427411e-12
4.9567e-05     	-5.9904613e-12
5.00011e-05    	-6.2728141e-12
5.04352e-05    	-6.5508823e-12
5.08694e-05    	-6.9163952e-12
5.13035e-05    	-7.1711640e-12
5.17376e-05    	-7.4266818e-12
5.21718e-05    	-7.7379099e-12
5.26059e-05    	-8.1191649e-12
5.304e-05      	-8.5084211e-12
5.34741e-05    	-8.8095273e-12
5.39083e-05    	-9.1603931e-12
5.43424e-05    	-9.4906610e-12
5.47765e-05    	-9.9058623e-12
5.52106e-05    	-1.0382958e-11
5.56448e-05    	-1.0720716e-11
5.60789e-05    	-1.1116572e-11
5.6513e-05     	-1.1503531e-11
5.69471e-05    	-1.1930165e-11
5.73813e-05    	-1.2450416e-11
5.78154e-05    	-1.2869107e-11
5.82495e-05    	-1.3294129e-11
5.86836e-05    	-1.3718650e-11
5.91178e-05    	-1.4188817e-11
5.95519e-05    	-1.4660338e-11
5.9986e-05     	-1.5064612e-11
6.04202e-05    	-1.5567934e-11
6.08543e-05    	-1.6151057e-11
6.12884e-05    	-1.6677027e-11
6.17225e-05    	-1.7284609e-11
6.21567e-05    	-1.7762774e-11
6.25908e-05    	-1.8260192e-11
6.30249e-05    	-1.8881060e-11
6.3459e-05     	-1.9489650e-11
6.38932e-05    	-2.0061768e-11
6.43273e-05    	-2.0655237e-11
6.47614e-05    	-2.1294403e-11
6.51955e-05    	-2.1978865e-11
6.56297e-05    	-2.2586330e-11
6.60638e-05    	-2.3290553e-11
6.64979e-05    	-2.3862005e-11
6.6932e-05     	-2.4535015e-11
6.73662e-05    	-2.5095153e-11
6.78003e-05    	-2.5789627e-11
6.82344e-05    	-2.6586757e-11
6.86686e-05    	-2.7270240e-11
6.91027e-05    	-2.8063715e-11
6.95368e-05    	-2.8770179e-11
6.99709e-05    	-2.9518145e-11
7.04051e-05    	-3.0298512e-11
7.08392e-05    	-3.1135194e-11
7.12733e-05    	-3.1990077e-11
7.17074e-05    	-3.2780399e-11
7.21416e-05    	-3.3653975e-11
7.25757e-05    	-3.4403417e-11
7.30098e-05    	-3.5468637e-11
7.34439e-05    	-3.6280624e-11
7.38781e-05    	-3.7253163e-11
7.43122e-05    	-3.8154260e-11
7.47463e-05    	-3.9110209e-11
7.51805e-05    	-4.0070618e-11
7.56146e-05    	-4.1249307e-11
7.60487e-05    	-4.2126608e-11
7.64828e-05    	-4.3191798e-11
7.6917e-05     	-4.4251408e-11
7.73511e-05    	-4.5219867e-11
7.77852e-05    	-4.6232905e-11
7.82193e-05    	-4.7246972e-11
7.86535e-05    	-4.8292875e-11
7.90876e-05    	-4.9323027e-11
7.95217e-05    	-5.0562189e-11
7.99558e-05    	-5.1698154e-11
8.039e-05      	-5.2898317e-11
8.08241e-05    	-5.4130233e-11
8.12582e-05    	-5.5228811e-11
8.16923e-05    	-5.6465072e-11
8.21265e-05    	-5.7545521e-11
8.25606e-05    	-5.9019333e-11
8.29947e-05    	-6.0068084e-11
8.34289e-05    	-6.1405044e-11
8.3863e-05     	-6.2540412e-11
8.42971e-05    	-6.3701568e-11
8.47312e-05    	-6.4978793e-11
8.51654e-05    	-6.6090389e-11
8.55995e-05    	-6.7351976e-11
8.60336e-05    	-6.8560451e-11
8.64677e-05    	-7.0094170e-11
8.69019e-05    	-7.1213426e-11
8.7336e-05     	-7.2337852e-11
8.77701e-05    	-7.3462116e-11
8.82042e-05    	-7.5017543e-11
8.86384e-05    	-7.5947951e-11
8.90725e-05    	-7.7229355e-11
8.95066e-05    	-7.8657123e-11
8.99408e-05    	-7.9893720e-11
9.03749e-05    	-8.1288505e-11
9.0809e-05     	-8.2571697e-11
9.12431e-05    	-8.4112877e-11
9.16773e-05    	-8.5063904e-11
9.21114e-05    	-8.6059391e-11
9.25455e-05    	-8.7673369e-11
9.29796e-05    	-8.8619578e-11
9.34138e-05    	-8.9868827e-11
9.38479e-05    	-9.1017948e-11
9.4282e-05     	-9.2409089e-11
9.47161e-05    	-9.3879353e-11
9.51503e-05    	-9.5046469e-11
9.55844e-05    	-9.6389625e-11
9.60185e-05    	-9.7539412e-11
9.64526e-05    	-9.8745500e-11
9.68868e-05    	-1.0052548e-10
9.73209e-05    	-1.0125822e-10
9.7755e-05     	-1.0233243e-10
9.81892e-05    	-1.0363575e-10
9.86233e-05    	-1.0484124e-10
9.90574e-05    	-1.0558679e-10
9.94915e-05    	-1.0717308e-10
9.99257e-05    	-1.0829932e-10
0.00010036     	-1.0963230e-10
0.000100794    	-1.1093338e-10
0.000101228    	-1.1189088e-10
0.000101662    	-1.1317716e-10
0.000102096    	-1.1464617e-10
0.00010253     	-1.1607653e-10
0.000102965    	-1.1681216e-10
0.000103399    	-1.1830024e-10
0.000103833    	-1.1944596e-10
0.000104267    	-1.2047741e-10
0.000104701    	-1.2201724e-10
0.000105135    	-1.2273193e-10
0.000105569    	-1.2401707e-10
0.000106003    	-1.2541786e-10
0.000106438    	-1.2631397e-10
0.000106872    	-1.2737170e-10
0.000107306    	-1.2878345e-10
0.00010774     	-1.3018365e-10
0.000108174    	-1.3124572e-10
0.000108608    	-1.3244103e-10
0.000109042    	-1.3327126e-10
0.000109476    	-1.3485941e-10
0.000109911    	-1.3570353e-10
0.000110345    	-1.3628802e-10
0.000110779    	-1.3802056e-10
0.000111213    	-1.3907996e-10
0.000111647    	-1.4008849e-10
0.000112081    	-1.4157876e-10
0.000112515    	-1.4257019e-10
0.000112949    	-1.4352444e-10
0.000113384    	-1.4519233e-10
0.000113818    	-1.4599571e-10
0.000114252    	-1.4678671e-10
0.000114686    	-1.4838276e-10
0.00011512     	-1.4931971e-10
0.000115554    	-1.5082185e-10
0.000115988    	-1.5167751e-10
0.000116422    	-1.5287213e-10
0.000116857    	-1.5448029e-10
0.000117291    	-1.5536495e-10
0.000117725    	-1.5652013e-10
0.000118159    	-1.5760115e-10
0.000118593    	-1.5877703e-10
0.000119027    	-1.5992122e-10
0.000119461    	-1.6158608e-10
0.000119895    	-1.6262640e-10
0.00012033     	-1.6370718e-10
0.000120764    	-1.6539570e-10
0.000121198    	-1.6645281e-10
0.000121632    	-1.6768528e-10
0.000122066    	-1.6892510e-10
0.0001225      	-1.7046496e-10
0.000122934    	-1.7228727e-10
0.000123368    	-1.7309485e-10
0.000123803    	-1.7467992e-10
0.000124237    	-1.7667468e-10
0.000124671    	-1.7782273e-10
0.000125105    	-1.7942511e-10
0.000125539    	-1.8110794e-10
0.000125973    	-1.8265611e-10
0.000126407    	-1.8423908e-10
0.000126841    	-1.8630109e-10
0.000127276    	-1.8802410e-10
0.00012771     	-1.8977210e-10
0.000128144    	-1.9207942e-10
0.000128578    	-1.9395292e-10
0.000129012    	-1.9604309e-10
0.000129446    	-1.9810410e-10
0.00012988     	-1.9986469e-10
0.000130315    	-2.0302943e-10
0.000130749    	-2.0516563e-10
0.000131183    	-2.0758142e-10
0.000131617    	-2.1077213e-10
0.000132051    	-2.1367709e-10
0.000132485    	-2.1704193e-10
0.000132919    	-2.2025110e-10
0.000133353    	-2.2313413e-10
0.000133788    	-2.2682457e-10
0.000134222    	-2.3025524e-10
0.000134656    	-2.3442122e-10
0.00013509     	-2.3876863e-10
0.000135524    	-2.4292992e-10
0.000135958    	-2.4731455e-10
0.000136392    	-2.5309039e-10
0.000136826    	-2.5774994e-10
0.000137261    	-2.6252630e-10
0.000137695    	-2.6904479e-10
0.000138129    	-2.7515476e-10
0.000138563    	-2.8169493e-10
0.000138997    	-2.8775355e-10
0.000139431    	-2.9466500e-10
0.000139865    	-3.0187973e-10
0.000140299    	-3.1028194e-10
0.000140734    	-3.1946043e-10
0.000141168    	-3.2800131e-10
0.000141602    	-3.3757181e-10
0.000142036    	-3.4707915e-10
0.00014247     	-3.5833317e-10
0.000142904    	-3.7029789e-10
0.000143338    	-3.8280196e-10
0.000143772    	-3.9791421e-10
0.000144207    	-4.1046276e-10
0.000144641    	-4.2516391e-10
0.000145075    	-4.3999018e-10
0.000145509    	-4.5570282e-10
0.000145943    	-4.7374931e-10
0.000146377    	-4.9281934e-10
0.000146811    	-5.1342212e-10
0.000147245    	-5.3812020e-10
0.00014768     	-5.5928915e-10
0.000148114    	-5.8222548e-10
0.000148548    	-6.0787030e-10
0.000148982    	-6.3924393e-10
0.000149416    	-6.6631467e-10
0.00014985     	-6.9539852e-10
0.000150284    	-7.2962624e-10
0.000150718    	-7.6995904e-10
0.000151153    	-8.0437245e-10
0.000151587    	-8.4181721e-10
0.000152021    	-8.8995152e-10
0.000152455    	-9.3892545e-10
0.000152889    	-9.8505401e-10
0.000153323    	-1.0328272e-09
0.000153757    	-1.0935763e-09
0.000154191    	-1.1566916e-09
0.000154626    	-1.2105996e-09
0.00015506     	-1.2804023e-09
0.000155494    	-1.3596090e-09
0.000155928    	-1.4365729e-09
0.000156362    	-1.5087121e-09
0.000156796    	-1.5887406e-09
0.00015723     	-1.6854656e-09
0.000157664    	-1.7778945e-09
0.000158099    	-1.8816263e-09
0.000158533    	-1.9883046e-09
0.000158967    	-2.1210185e-09
0.000159401    	-2.2449198e-09
0.000159835    	-2.3786367e-09
0.000160269    	-2.5148587e-09
0.000160703    	-2.6666209e-09
0.000161137    	-2.8117851e-09
0.000161572    	-2.9916926e-09
0.000162006    	-3.1934014e-09
0.00016244     	-3.3970226e-09
0.000162874    	-3.5844190e-09
0.000163308    	-3.8255095e-09
0.000163742    	-4.0810089e-09
0.000164176    	-4.3114842e-09
0.00016461     	-4.5704208e-09
0.000165045    	-4.8811532e-09
0.000165479    	-5.2120556e-09
0.000165913    	-5.5646283e-09
0.000166347    	-5.9580720e-09
0.000166781    	-6.3366654e-09
0.000167215    	-6.6881072e-09
0.000167649    	-7.1393131e-09
0.000168084    	-7.6397185e-09
0.000168518    	-8.1101202e-09
0.000168952    	-8.5711224e-09
0.000169386    	-9.1090317e-09
0.00016982     	-9.7514108e-09
0.000170254    	-1.0288366e-08
0.000170688    	-1.0865147e-08
0.000171122    	-1.1524624e-08
0.000171557    	-1.2114611e-08
0.000171991    	-1.2707050e-08
0.000172425    	-1.3312098e-08
0.000172859    	-1.3976556e-08
0.000173293    	-1.4439571e-08
0.000173727    	-1.5257021e-08
0.000174161    	-1.5755979e-08
0.000174595    	-1.6288820e-08
0.00017503     	-1.7070942e-08
0.000175464    	-1.7627860e-08
0.000175898    	-1.8163740e-08
0.000176332    	-1.9022668e-08
0.000176766    	-1.9521198e-08
0.0001772      	-2.0182179e-08
0.000177634    	-2.0917821e-08
0.000178068    	-2.1579687e-08
0.000178503    	-2.2141182e-08
0.000178937    	-2.2792997e-08
0.000179371    	-2.3575846e-08
0.000179805    	-2.4179884e-08
0.000180239    	-2.4779140e-08
0.000180673    	-2.5557919e-08
0.000181107    	-2.6232070e-08
0.000181541    	-2.6860120e-08
0.000181976    	-2.7723807e-08
0.00018241     	-2.8322586e-08
0.000182844    	-2.8962380e-08
0.000183278    	-2.9665959e-08
0.000183712    	-3.0547179e-08
0.000184146    	-3.1131501e-08
0.00018458     	-3.1754795e-08
0.000185014    	-3.2691746e-08
0.000185449    	-3.3251711e-08
0.000185883    	-3.3998579e-08
0.000186317    	-3.4913484e-08
0.000186751    	-3.5515630e-08
0.000187185    	-3.6211746e-08
0.000187619    	-3.7094874e-08
0.000188053    	-3.7679591e-08
0.000188487    	-3.8383161e-08
0.000188922    	-3.9344685e-08
0.000189356    	-3.9962486e-08
0.00018979     	-4.0627713e-08
0.000190224    	-4.1568286e-08
0.000190658    	-4.2211170e-08
0.000191092    	-4.2852015e-08
0.000191526    	-4.3754558e-08
0.00019196     	-4.4494233e-08
0.000192395    	-4.5441643e-08
0.000192829    	-4.5944274e-08
0.000193263    	-4.6694556e-08
0.000193697    	-4.7643607e-08
0.000194131    	-4.8257648e-08
0.000194565    	-4.9178562e-08
0.000194999    	-4.9921092e-08
0.000195433    	-5.0616887e-08
0.000195868    	-5.1490752e-08
0.000196302    	-5.2211117e-08
0.000196736    	-5.3062042e-08
0.00019717     	-5.3725630e-08
0.000197604    	-5.4472843e-08
0.000198038    	-5.5419094e-08
0.000198472    	-5.6039153e-08
0.000198906    	-5.6962809e-08
0.000199341    	-5.7694482e-08
0.000199775    	-5.8283916e-08
0.000200209    	-5.9328497e-08
0.000200643    	-6.0065650e-08
0.000201077    	-6.0848602e-08
0.000201511    	-6.1551943e-08
0.000201945    	-6.2412115e-08
0.000202379    	-6.3066993e-08
0.000202814    	-6.4068111e-08
0.000203248    	-6.4674736e-08
0.000203682    	-6.5315251e-08
0.000204116    	-6.6323998e-08
0.00020455     	-6.6928962e-08
0.000204984    	-6.7838075e-08
0.000205418    	-6.8568197e-08
0.000205853    	-6.9338696e-08
0.000206287    	-7.0126971e-08
0.000206721    	-7.0886247e-08
0.000207155    	-7.1707815e-08
0.000207589    	-7.2450496e-08
0.000208023    	-7.3041717e-08
0.000208457    	-7.3877680e-08
0.000208891    	-7.4645358e-08
0.000209326    	-7.5218298e-08
0.00020976     	-7.6205679e-08
0.000210194    	-7.6774857e-08
0.000210628    	-7.7578694e-08
0.000211062    	-7.8242043e-08
0.000211496    	-7.9044444e-08
0.00021193     	-7.9667546e-08
0.000212364    	-8.0467603e-08
0.000212799    	-8.1167197e-08
0.000213233    	-8.1899031e-08
0.000213667    	-8.2434217e-08
0.000214101    	-8.3412475e-08
0.000214535    	-8.3871684e-08
0.000214969    	-8.4746917e-08
0.000215403    	-8.5263633e-08
0.000215837    	-8.6153372e-08
0.000216272    	-8.6838472e-08
0.000216706    	-8.7558038e-08
0.00021714     	-8.8131735e-08
0.000217574    	-8.9065066e-08
0.000218008    	-8.9586216e-08
0.000218442    	-9.0465165e-08
0.000218876    	-9.1009315e-08
0.00021931     	-9.1852515e-08
0.000219745    	-9.2504130e-08
0.000220179    	-9.3264101e-08
0.000220613    	-9.3944549e-08
0.000221047    	-9.4930227e-08
0.000221481    	-9.5536102e-08
0.000221915    	-9.6575629e-08
0.000222349    	-9.7184919e-08
0.000222783    	-9.8037771e-08
0.000223218    	-9.8861956e-08
0.000223652    	-9.9698440e-08
0.000224086    	-1.0045654e-07
0.00022452     	-1.0154593e-07
0.000224954    	-1.0253748e-07
0.000225388    	-1.0332944e-07
0.000225822    	-1.0441699e-07
0.000226256    	-1.0520489e-07
0.000226691    	-1.0639204e-07
0.000227125    	-1.0746260e-07
0.000227559    	-1.0864235e-07
0.000227993    	-1.0962898e-07
0.000228427    	-1.1096906e-07
0.000228861    	-1.1186776e-07
0.000229295    	-1.1302649e-07
0.000229729    	-1.1446877e-07
0.000230164    	-1.1539905e-07
0.000230598    	-1.1663394e-07
0.000231032    	-1.1777886e-07
0.000231466    	-1.1894061e-07
0.0002319      	-1.2013105e-07
0.000232334    	-1.2133627e-07
0.000232768    	-1.2271710e-07
0.000233202    	-1.2382685e-07
0.000233637    	-1.2535800e-07
0.000234071    	-1.2640828e-07
0.000234505    	-1.2762713e-07
0.000234939    	-1.2908730e-07
0.000235373    	-1.3023330e-07
0.000235807    	-1.3164350e-07
0.000236241    	-1.3296953e-07
0.000236675    	-1.3436159e-07
0.00023711     	-1.3603633e-07
0.000237544    	-1.3732188e-07
0.000237978    	-1.3849968e-07
0.000238412    	-1.4017381e-07
0.000238846    	-1.4162367e-07
0.00023928     	-1.4306381e-07
0.000239714    	-1.4460796e-07
0.000240148    	-1.4620557e-07
0.000240583    	-1.4776341e-07
0.000241017    	-1.4927468e-07
0.000241451    	-1.5105049e-07
0.000241885    	-1.5265591e-07
0.000242319    	-1.5425121e-07
0.000242753    	-1.5590864e-07
0.000243187    	-1.5760050e-07
0.000243622    	-1.5949146e-07
0.000244056    	-1.6121720e-07
0.00024449     	-1.6295871e-07
0.000244924    	-1.6460281e-07
0.000245358    	-1.6631735e-07
0.000245792    	-1.6836504e-07
0.000246226    	-1.6980293e-07
0.00024666     	-1.7136313e-07
0.000247095    	-1.7349691e-07
0.000247529    	-1.7503746e-07
0.000247963    	-1.7688787e-07
0.000248397    	-1.7860885e-07
0.000248831    	-1.8041645e-07
0.000249265    	-1.8214174e-07
0.000249699    	-1.8395975e-07
0.000250133    	-1.8570556e-07
0.000250568    	-1.8743271e-07
0.000251002    	-1.8921379e-07
0.000251436    	-1.9118300e-07
0.00025187     	-1.9279372e-07
0.000252304    	-1.9446893e-07
0.000252738    	-1.9613896e-07
0.000253172    	-1.9807928e-07
0.000253606    	-1.9994666e-07
0.000254041    	-2.0156184e-07
0.000254475    	-2.0359084e-07
0.000254909    	-2.0509687e-07
0.000255343    	-2.0699898e-07
0.000255777    	-2.0864278e-07
0.000256211    	-2.1066913e-07
0.000256645    	-2.1240281e-07
0.000257079    	-2.1400173e-07
0.000257514    	-2.1614244e-07
0.000257948    	-2.1774667e-07
0.000258382    	-2.1955717e-07
0.000258816    	-2.2129769e-07
0.00025925     	-2.2298763e-07
0.000259684    	-2.2479590e-07
0.000260118    	-2.2681701e-07
0.000260552    	-2.2812456e-07
0.000260987    	-2.2985745e-07
0.000261421    	-2.3141462e-07
0.000261855    	-2.3314532e-07
0.000262289    	-2.3513318e-07
0.000262723    	-2.3647935e-07
0.000263157    	-2.3847433e-07
0.000263591    	-2.3977173e-07
0.000264025    	-2.4160119e-07
0.00026446     	-2.4322883e-07
0.000264894    	-2.4465611e-07
0.000265328    	-2.4654591e-07
0.000265762    	-2.4801321e-07
0.000266196    	-2.4936706e-07
0.00026663     	-2.5092690e-07
0.000267064    	-2.5269422e-07
0.000267498    	-2.5400333e-07
0.000267933    	-2.5525922e-07
0.000268367    	-2.5686659e-07
0.000268801    	-2.5829908e-07
0.000269235    	-2.6005402e-07
0.000269669    	-2.6112154e-07
0.000270103    	-2.6291068e-07
0.000270537    	-2.6441571e-07
0.000270971    	-2.6598058e-07
0.000271406    	-2.6711215e-07
0.00027184     	-2.6873638e-07
0.000272274    	-2.7019482e-07
0.000272708    	-2.7180399e-07
0.000273142    	-2.7295827e-07
0.000273576    	-2.7437814e-07
0.00027401     	-2.7578585e-07
0.000274444    	-2.7668959e-07
0.000274879    	-2.7823588e-07
0.000275313    	-2.7964105e-07
0.000275747    	-2.8082075e-07
0.000276181    	-2.8216594e-07
0.000276615    	-2.8341548e-07
0.000277049    	-2.8467848e-07
0.000277483    	-2.8573521e-07
0.000277917    	-2.8696252e-07
0.000278352    	-2.8851988e-07
0.000278786    	-2.8942711e-07
0.00027922     	-2.9071560e-07
0.000279654    	-2.9195193e-07
0.000280088    	-2.9287174e-07
0.000280522    	-2.9464111e-07
0.000280956    	-2.9528723e-07
0.000281391    	-2.9667797e-07
0.000281825    	-2.9709887e-07
0.000282259    	-2.9867707e-07
0.000282693    	-2.9983741e-07
0.000283127    	-3.0082159e-07
0.000283561    	-3.0179899e-07
0.000283995    	-3.0287283e-07
0.000284429    	-3.0425858e-07
0.000284864    	-3.0527622e-07
0.000285298    	-3.0637103e-07
0.000285732    	-3.0709052e-07
0.000286166    	-3.0811795e-07
0.0002866      	-3.0911061e-07
0.000287034    	-3.1039505e-07
0.000287468    	-3.1122384e-07
0.000287902    	-3.1220275e-07
0.000288337    	-3.1288505e-07
0.000288771    	-3.1416020e-07
0.000289205    	-3.1552628e-07
0.000289639    	-3.1602041e-07
0.000290073    	-3.1704706e-07
0.000290507    	-3.1789382e-07
0.000290941    	-3.1894695e-07
0.000291375    	-3.1986590e-07
0.00029181     	-3.2063575e-07
0.000292244    	-3.2190427e-07
0.000292678    	-3.2220930e-07
0.000293112    	-3.2354752e-07
0.000293546    	-3.2445257e-07
0.00029398     	-3.2512383e-07
0.000294414    	-3.2620123e-07
0.000294848    	-3.2684028e-07
0.000295283    	-3.2812349e-07
0.000295717    	-3.2885885e-07
0.000296151    	-3.2967553e-07
0.000296585    	-3.3041687e-07
0.000297019    	-3.3111184e-07
0.000297453    	-3.3226443e-07
0.000297887    	-3.3281624e-07
0.000298321    	-3.3395161e-07
0.000298756    	-3.3468874e-07
0.00029919     	-3.3521550e-07
0.000299624    	-3.3629465e-07
0.000300058    	-3.3688231e-07
0.000300492    	-3.3790641e-07
0.000300926    	-3.3869011e-07
0.00030136     	-3.3905557e-07
0.000301794    	-3.4018982e-07
0.000302229    	-3.4086125e-07
0.000302663    	-3.4171456e-07
0.000303097    	-3.4228215e-07
0.000303531    	-3.4269513e-07
0.000303965    	-3.4383274e-07
0.000304399    	-3.4437539e-07
0.000304833    	-3.4495670e-07
0.000305267    	-3.4610004e-07
0.000305702    	-3.4610677e-07
0.000306136    	-3.4697970e-07
0.00030657     	-3.4798190e-07
0.000307004    	-3.4827331e-07
0.000307438    	-3.4945933e-07
0.000307872    	-3.4973724e-07
0.000308306    	-3.5023358e-07
0.00030874     	-3.5118452e-07
0.000309175    	-3.5141308e-07
0.000309609    	-3.5185892e-07
0.000310043    	-3.5268419e-07
0.000310477    	-3.5295335e-07
0.000310911    	-3.5377341e-07
0.000311345    	-3.5418843e-07
0.000311779    	-3.5461751e-07
0.000312213    	-3.5503417e-07
0.000312648    	-3.5549754e-07
0.000313082    	-3.5623444e-07
0.000313516    	-3.5656590e-07
0.00031395     	-3.5711768e-07
0.000314384    	-3.5734745e-07
0.000314818    	-3.5756502e-07
0.000315252    	-3.5804974e-07
0.000315686    	-3.5837443e-07
0.000316121    	-3.5881977e-07
0.000316555    	-3.5896294e-07
0.000316989    	-3.5898924e-07
0.000317423    	-3.5966398e-07
0.000317857    	-3.5997366e-07
0.000318291    	-3.5985287e-07
0.000318725    	-3.5998742e-07
0.00031916     	-3.6030054e-07
0.000319594    	-3.6053658e-07
0.000320028    	-3.6061693e-07
0.000320462    	-3.6096537e-07
0.000320896    	-3.6092861e-07
0.00032133     	-3.6087081e-07
0.000321764    	-3.6116993e-07
0.000322198    	-3.6103334e-07
0.000322633    	-3.6108850e-07
0.000323067    	-3.6105206e-07
0.000323501    	-3.6121324e-07
0.000323935    	-3.6114450e-07
0.000324369    	-3.6082479e-07
0.000324803    	-3.6075710e-07
0.000325237    	-3.6080921e-07
0.000325671    	-3.6039100e-07
0.000326106    	-3.6041657e-07
0.00032654     	-3.6010574e-07
0.000326974    	-3.6016593e-07
0.000327408    	-3.5970673e-07
0.000327842    	-3.5926320e-07
0.000328276    	-3.5934090e-07
0.00032871     	-3.5882929e-07
0.000329144    	-3.5855096e-07
0.000329579    	-3.5809881e-07
0.000330013    	-3.5735140e-07
0.000330447    	-3.5750802e-07
0.000330881    	-3.5677958e-07
0.000331315    	-3.5665495e-07
0.000331749    	-3.5566211e-07
0.000332183    	-3.5551288e-07
0.000332617    	-3.5500499e-07
0.000333052    	-3.5395840e-07
0.000333486    	-3.5354166e-07
0.00033392     	-3.5279418e-07
0.000334354    	-3.5228607e-07
0.000334788    	-3.5166963e-07
0.000335222    	-3.5054595e-07
0.000335656    	-3.4993357e-07
0.00033609     	-3.4917518e-07
0.000336525    	-3.4832562e-07
0.000336959    	-3.4706984e-07
0.000337393    	-3.4645241e-07
0.000337827    	-3.4536217e-07
0.000338261    	-3.4455121e-07
0.000338695    	-3.4329093e-07
0.000339129    	-3.4247032e-07
0.000339563    	-3.4185697e-07
0.000339998    	-3.4095179e-07
0.000340432    	-3.3968013e-07
0.000340866    	-3.3856159e-07
0.0003413      	-3.3735429e-07
0.000341734    	-3.3592701e-07
0.000342168    	-3.3532946e-07
0.000342602    	-3.3386268e-07
0.000343036    	-3.3260466e-07
0.000343471    	-3.3116172e-07
0.000343905    	-3.2992212e-07
0.000344339    	-3.2875843e-07
0.000344773    	-3.2688942e-07
0.000345207    	-3.2570750e-07
0.000345641    	-3.2460685e-07
0.000346075    	-3.2263276e-07
0.000346509    	-3.2129991e-07
0.000346944    	-3.1980207e-07
0.000347378    	-3.1848634e-07
0.000347812    	-3.1674552e-07
0.000348246    	-3.1552774e-07
0.00034868     	-3.1355109e-07
0.000349114    	-3.1199256e-07
0.000349548    	-3.1060688e-07
0.000349982    	-3.0860243e-07
0.000350417    	-3.0712710e-07
0.000350851    	-3.0508291e-07
0.000351285    	-3.0338757e-07
0.000351719    	-3.0159660e-07
0.000352153    	-2.9969566e-07
0.000352587    	-2.9773512e-07
0.000353021    	-2.9582405e-07
0.000353455    	-2.9389598e-07
0.00035389     	-2.9184779e-07
0.000354324    	-2.9006519e-07
0.000354758    	-2.8746680e-07
0.000355192    	-2.8568175e-07
0.000355626    	-2.8379562e-07
0.00035606     	-2.8142281e-07
0.000356494    	-2.7929954e-07
0.000356929    	-2.7680349e-07
0.000357363    	-2.7530785e-07
0.000357797    	-2.7238447e-07
0.000358231    	-2.7000363e-07
0.000358665    	-2.6778373e-07
0.000359099    	-2.6557581e-07
0.000359533    	-2.6277170e-07
0.000359967    	-2.6040403e-07
0.000360402    	-2.5826464e-07
0.000360836    	-2.5538162e-07
0.00036127     	-2.5335183e-07
0.000361704    	-2.5021809e-07
0.000362138    	-2.4779396e-07
0.000362572    	-2.4524369e-07
0.000363006    	-2.4249080e-07
0.00036344     	-2.3984259e-07
0.000363875    	-2.3721744e-07
0.000364309    	-2.3417108e-07
0.000364743    	-2.3158163e-07
0.000365177    	-2.2882580e-07
0.000365611    	-2.2606170e-07
0.000366045    	-2.2291030e-07
0.000366479    	-2.1993460e-07
0.000366913    	-2.1730484e-07
0.000367348    	-2.1381388e-07
0.000367782    	-2.1138588e-07
0.000368216    	-2.0803544e-07
0.00036865     	-2.0505324e-07
0.000369084    	-2.0188486e-07
0.000369518    	-1.9864107e-07
0.000369952    	-1.9534016e-07
0.000370386    	-1.9240241e-07
0.000370821    	-1.8917281e-07
0.000371255    	-1.8549178e-07
0.000371689    	-1.8276225e-07
0.000372123    	-1.7912004e-07
0.000372557    	-1.7617652e-07
0.000372991    	-1.7259368e-07
0.000373425    	-1.6916356e-07
0.000373859    	-1.6547345e-07
0.000374294    	-1.6253616e-07
0.000374728    	-1.5866955e-07
0.000375162    	-1.5541642e-07
0.000375596    	-1.5154876e-07
0.00037603     	-1.4832035e-07
0.000376464    	-1.4426033e-07
0.000376898    	-1.4117767e-07
0.000377332    	-1.3721813e-07
0.000377767    	-1.3357151e-07
0.000378201    	-1.2987038e-07
0.000378635    	-1.2632095e-07
0.000379069    	-1.2190092e-07
0.000379503    	-1.1821226e-07
0.000379937    	-1.1432152e-07
0.000380371    	-1.1024678e-07
0.000380805    	-1.0622069e-07
0.00038124     	-1.0247788e-07
0.000381674    	-9.8032632e-08
0.000382108    	-9.3960221e-08
0.000382542    	-8.9179734e-08
0.000382976    	-8.5055341e-08
0.00038341     	-8.0697562e-08
0.000383844    	-7.6227569e-08
0.000384278    	-7.1634799e-08
0.000384713    	-6.7046673e-08
0.000385147    	-6.2147035e-08
0.000385581    	-5.7356977e-08
0.000386015    	-5.2566150e-08
0.000386449    	-4.7548457e-08
0.000386883    	-4.2783063e-08
0.000387317    	-3.7718527e-08
0.000387751    	-3.2539456e-08
0.000388186    	-2.7530880e-08
0.00038862     	-2.2252742e-08
0.000389054    	-1.7056279e-08
0.000389488    	-1.1341000e-08
0.000389922    	-6.4036485e-09
0.000390356    	-4.8980628e-10
0.00039079     	4.8254182e-09
0.000391224    	1.0461209e-08
0.000391659    	1.6199829e-08
0.000392093    	2.2331594e-08
0.000392527    	2.7744482e-08
0.000392961    	3.3968406e-08
0.000393395    	4.0091858e-08
0.000393829    	4.6268245e-08
0.000394263    	5.2524064e-08
0.000394698    	5.8992599e-08
0.000395132    	6.5162330e-08
0.000395566    	7.1618067e-08
0.000396       	7.8254028e-08
0.000396434    	8.4763852e-08
0.000396868    	9.1485097e-08
0.000397302    	9.8182089e-08
0.000397736    	1.0500509e-07
0.000398171    	1.1209146e-07
0.000398605    	1.1900723e-07
0.000399039    	1.2608206e-07
0.000399473    	1.3334022e-07
0.000399907    	1.4068127e-07
0.000400341    	1.4785136e-07
0.000400775    	1.5510427e-07
0.000401209    	1.6251785e-07
0.000401644    	1.7033796e-07
0.000402078    	1.7790336e-07
0.000402512    	1.8577676e-07
0.000402946    	1.9353502e-07
0.00040338     	2.0164164e-07
0.000403814    	2.0973515e-07
0.000404248    	2.1742145e-07
0.000404682    	2.2606409e-07
0.000405117    	2.3424219e-07
0.000405551    	2.4254873e-07
0.000405985    	2.5119222e-07
0.000406419    	2.5963113e-07
0.000406853    	2.6870249e-07
0.000407287    	2.7705320e-07
0.000407721    	2.8585701e-07
0.000408155    	2.9525691e-07
0.00040859     	3.0425537e-07
0.000409024    	3.1328371e-07
0.000409458    	3.2242044e-07
0.000409892    	3.3217838e-07
0.000410326    	3.4146676e-07
0.00041076     	3.5084799e-07
0.000411194    	3.6084318e-07
0.000411628    	3.7043998e-07
0.000412063    	3.8037855e-07
0.000412497    	3.9023410e-07
0.000412931    	4.0011154e-07
0.000413365    	4.1053476e-07
0.000413799    	4.2068580e-07
0.000414233    	4.3128568e-07
0.000414667    	4.4155807e-07
0.000415101    	4.5221855e-07
0.000415536    	4.6297176e-07
0.00041597     	4.7390663e-07
0.000416404    	4.8443032e-07
0.000416838    	4.9542032e-07
0.000417272    	5.0684868e-07
0.000417706    	5.1775166e-07
0.00041814     	5.2907075e-07
0.000418574    	5.4083422e-07
0.000419009    	5.5245560e-07
0.000419443    	5.6380899e-07