# Region type : patch cOutlet
# Faces  :     1612
# Area   :     4.2541269e-05
# Time         	sum(phi)
0              	0.0000000e+00
4.84226e-07    	7.0324404e-04
9.11553e-07    	6.6151186e-04
1.34502e-06    	6.4156171e-04
1.77906e-06    	6.2654645e-04
2.21287e-06    	6.0910023e-04
2.64549e-06    	5.9760384e-04
3.07543e-06    	5.9293137e-04
3.50377e-06    	5.9132115e-04
3.93083e-06    	5.9030894e-04
4.35662e-06    	5.8870071e-04
4.78118e-06    	5.8685116e-04
5.20455e-06    	5.8611557e-04
5.62692e-06    	5.8703988e-04
6.04855e-06    	5.8939474e-04
6.46975e-06    	5.9264052e-04
6.89092e-06    	5.9603583e-04
7.31239e-06    	5.9877441e-04
7.73458e-06    	6.0052463e-04
8.15777e-06    	6.0124896e-04
8.58227e-06    	6.0149013e-04
9.00825e-06    	6.0189479e-04
9.4358e-06     	6.0282195e-04
9.86479e-06    	6.0432682e-04
1.02951e-05    	6.0611642e-04
1.07265e-05    	6.0778208e-04
1.11588e-05    	6.0903597e-04
1.15919e-05    	6.0980478e-04
1.20257e-05    	6.1005259e-04
1.24603e-05    	6.0986472e-04
1.28952e-05    	6.0938324e-04
1.333e-05      	6.0839028e-04
1.37645e-05    	6.0696487e-04
1.4197e-05     	6.0484755e-04
1.46269e-05    	6.0198322e-04
1.50544e-05    	5.9839130e-04
1.54806e-05    	5.9415794e-04
1.59055e-05    	5.8944544e-04
1.63294e-05    	5.8428594e-04
1.67524e-05    	5.7881284e-04
1.7175e-05     	5.7315588e-04
1.75975e-05    	5.6744970e-04
1.802e-05      	5.6176742e-04
1.84427e-05    	5.5613185e-04
1.8866e-05     	5.5061520e-04
1.929e-05      	5.4528068e-04
1.97149e-05    	5.4016276e-04
2.0141e-05     	5.3523060e-04
2.05682e-05    	5.3047374e-04
2.09964e-05    	5.2587435e-04
2.14256e-05    	5.2138283e-04
2.18555e-05    	5.1700701e-04
2.2286e-05     	5.1274190e-04
2.27172e-05    	5.0861699e-04
2.3149e-05     	5.0464179e-04
2.35812e-05    	5.0087794e-04
2.40137e-05    	4.9740552e-04
2.44461e-05    	4.9425435e-04
2.48778e-05    	4.9154029e-04
2.53088e-05    	4.8927727e-04
2.57389e-05    	4.8733925e-04
2.61682e-05    	4.8554375e-04
2.65963e-05    	4.8375870e-04
2.70233e-05    	4.8189547e-04
2.7449e-05     	4.7991107e-04
2.78734e-05    	4.7786291e-04
2.82966e-05    	4.7583233e-04
2.87189e-05    	4.7390477e-04
2.91407e-05    	4.7214569e-04
2.95624e-05    	4.7053711e-04
2.99844e-05    	4.6905491e-04
3.04069e-05    	4.6768728e-04
3.08304e-05    	4.6637675e-04
3.12553e-05    	4.6507558e-04
3.16817e-05    	4.6374228e-04
3.21097e-05    	4.6232211e-04
3.25391e-05    	4.6076293e-04
3.29699e-05    	4.5901132e-04
3.34017e-05    	4.5700847e-04
3.38345e-05    	4.5479953e-04
3.42677e-05    	4.5242688e-04
3.47007e-05    	4.4993881e-04
3.51333e-05    	4.4740589e-04
3.55651e-05    	4.4490777e-04
3.59963e-05    	4.4254430e-04
3.64268e-05    	4.4042127e-04
3.68566e-05    	4.3862060e-04
3.72856e-05    	4.3722615e-04
3.77135e-05    	4.3624011e-04
3.81408e-05    	4.3567157e-04
3.85677e-05    	4.3558568e-04
3.89944e-05    	4.3600219e-04
3.94213e-05    	4.3695076e-04
3.98486e-05    	4.3835922e-04
4.02764e-05    	4.4012311e-04
4.07049e-05    	4.4212219e-04
4.1134e-05     	4.4425488e-04
4.15638e-05    	4.4641598e-04
4.19942e-05    	4.4858216e-04
4.24252e-05    	4.5070917e-04
4.28566e-05    	4.5272856e-04
4.32884e-05    	4.5452738e-04
4.37207e-05    	4.5604187e-04
4.41533e-05    	4.5720312e-04
4.45862e-05    	4.5798271e-04
4.50196e-05    	4.5850726e-04
4.54532e-05    	4.5886813e-04
4.58872e-05    	4.5915117e-04
4.63207e-05    	4.5940751e-04
4.67533e-05    	4.5963972e-04
4.7185e-05     	4.5988981e-04
4.76158e-05    	4.6015683e-04
4.80458e-05    	4.6045657e-04
4.84747e-05    	4.6086124e-04
4.89025e-05    	4.6148430e-04
4.93292e-05    	4.6238580e-04
4.97549e-05    	4.6355725e-04
5.01796e-05    	4.6496491e-04
5.06037e-05    	4.6659896e-04
5.10274e-05    	4.6843177e-04
5.14512e-05    	4.7039675e-04
5.18754e-05    	4.7238982e-04
5.23e-05       	4.7430437e-04
5.27252e-05    	4.7600569e-04
5.31511e-05    	4.7738603e-04
5.35776e-05    	4.7835589e-04
5.40048e-05    	4.7886165e-04
5.44325e-05    	4.7890387e-04
5.48603e-05    	4.7852099e-04
5.52879e-05    	4.7777004e-04
5.57147e-05    	4.7671520e-04
5.61404e-05    	4.7540085e-04
5.65653e-05    	4.7388492e-04
5.69896e-05    	4.7224448e-04
5.7413e-05     	4.7057822e-04
5.78356e-05    	4.6898959e-04
5.82573e-05    	4.6761572e-04
5.86784e-05    	4.6657711e-04
5.90991e-05    	4.6596877e-04
5.95202e-05    	4.6583055e-04
5.99424e-05    	4.6620492e-04
6.03662e-05    	4.6711346e-04
6.07916e-05    	4.6852560e-04
6.12187e-05    	4.7044794e-04
6.16474e-05    	4.7291001e-04
6.20776e-05    	4.7590597e-04
6.25093e-05    	4.7940147e-04
6.29423e-05    	4.8328650e-04
6.33765e-05    	4.8737367e-04
6.3812e-05     	4.9135791e-04
6.42487e-05    	4.9502320e-04
6.46864e-05    	4.9819385e-04
6.51252e-05    	5.0075714e-04
6.55648e-05    	5.0265948e-04
6.60053e-05    	5.0385572e-04
6.64463e-05    	5.0433628e-04
6.68871e-05    	5.0413689e-04
6.73271e-05    	5.0328151e-04
6.77661e-05    	5.0177554e-04
6.82034e-05    	4.9965372e-04
6.86389e-05    	4.9695915e-04
6.90726e-05    	4.9374757e-04
6.95044e-05    	4.9010087e-04
6.99346e-05    	4.8609067e-04
7.03631e-05    	4.8181823e-04
7.07899e-05    	4.7740204e-04
7.12152e-05    	4.7295000e-04
7.16391e-05    	4.6857581e-04
7.20618e-05    	4.6437729e-04
7.24838e-05    	4.6043912e-04
7.29052e-05    	4.5679543e-04
7.33263e-05    	4.5344938e-04
7.37473e-05    	4.5039929e-04
7.41684e-05    	4.4762966e-04
7.45901e-05    	4.4510442e-04
7.50123e-05    	4.4278942e-04
7.54353e-05    	4.4065664e-04
7.58591e-05    	4.3866614e-04
7.62837e-05    	4.3677962e-04
7.67091e-05    	4.3493948e-04
7.71346e-05    	4.3309157e-04
7.75594e-05    	4.3118131e-04
7.79836e-05    	4.2916250e-04
7.8407e-05     	4.2699783e-04
7.88294e-05    	4.2465215e-04
7.92506e-05    	4.2212992e-04
7.96705e-05    	4.1946093e-04
8.00894e-05    	4.1668539e-04
8.05076e-05    	4.1382190e-04
8.09257e-05    	4.1088685e-04
8.13446e-05    	4.0791291e-04
8.1765e-05     	4.0495222e-04
8.21872e-05    	4.0208369e-04
8.26112e-05    	3.9937149e-04
8.30369e-05    	3.9687262e-04
8.34642e-05    	3.9462519e-04
8.38934e-05    	3.9266463e-04
8.43242e-05    	3.9099922e-04
8.47564e-05    	3.8962029e-04
8.51899e-05    	3.8849902e-04
8.56246e-05    	3.8758109e-04
8.60603e-05    	3.8680830e-04
8.6497e-05     	3.8611039e-04
8.69346e-05    	3.8539352e-04
8.7373e-05     	3.8455319e-04
8.78122e-05    	3.8347471e-04
8.82521e-05    	3.8202554e-04
8.86925e-05    	3.8008392e-04
8.91328e-05    	3.7751055e-04
8.95727e-05    	3.7415101e-04
9.0012e-05     	3.6969369e-04
9.04504e-05    	3.6372313e-04
9.08879e-05    	3.5587210e-04
9.13244e-05    	3.4572564e-04
9.17599e-05    	3.3302129e-04
9.21944e-05    	3.1784246e-04
9.26278e-05    	3.0043522e-04
9.30601e-05    	2.8109526e-04
9.34912e-05    	2.6015794e-04
9.39212e-05    	2.3788133e-04
9.43503e-05    	2.1466444e-04
9.47786e-05    	1.9107364e-04
9.52062e-05    	1.6770071e-04
9.56334e-05    	1.4497548e-04
9.60605e-05    	1.2318471e-04
9.64875e-05    	1.0264753e-04
9.69147e-05    	8.3648184e-05
9.73423e-05    	6.6449123e-05
9.77704e-05    	5.1140034e-05
9.81991e-05    	3.7753020e-05
9.86283e-05    	2.6230003e-05
9.9058e-05     	1.6521188e-05
9.94879e-05    	8.5823787e-06
9.99179e-05    	2.2777972e-06
0.000100348    	-2.7156846e-06
0.000100777    	-6.7032548e-06
0.000101204    	-1.0003439e-05
0.000101629    	-1.2950749e-05
0.000102052    	-1.5822569e-05
0.000102474    	-1.8877528e-05
0.000102895    	-2.2326433e-05
0.000103315    	-2.6452087e-05
0.000103735    	-3.1533293e-05
0.000104156    	-3.7832175e-05
0.000104577    	-4.5550129e-05
0.000105       	-5.4833509e-05
0.000105423    	-6.5813138e-05
0.000105848    	-7.8420818e-05
0.000106275    	-9.2490508e-05
0.000106703    	-1.0778690e-04
0.000107133    	-1.2376743e-04
0.000107564    	-1.4000389e-04
0.000107996    	-1.5584683e-04
0.00010843     	-1.7075286e-04
0.000108865    	-1.8418825e-04
0.000109301    	-1.9556002e-04
0.000109738    	-2.0460052e-04
0.000110175    	-2.1142754e-04
0.000110613    	-2.1626210e-04
0.000111052    	-2.1928322e-04
0.00011149     	-2.2043978e-04
0.000111928    	-2.1958811e-04
0.000112366    	-2.1657273e-04
0.000112803    	-2.1129631e-04
0.000113239    	-2.0378158e-04
0.000113674    	-1.9415877e-04
0.000114108    	-1.8272510e-04
0.000114541    	-1.6998884e-04
0.000114973    	-1.5657042e-04
0.000115405    	-1.4310797e-04
0.000115835    	-1.3019168e-04
0.000116264    	-1.1828730e-04
0.000116691    	-1.0772540e-04
0.000117117    	-9.8663408e-05
0.000117541    	-9.1179140e-05
0.000117965    	-8.5301148e-05
0.000118388    	-8.1031546e-05
0.000118812    	-7.8392335e-05
0.000119235    	-7.7349903e-05
0.000119659    	-7.7820674e-05
0.000120083    	-7.9725127e-05
0.000120508    	-8.3064678e-05
0.000120934    	-8.7928715e-05
0.000121361    	-9.4385745e-05
0.00012179     	-1.0240393e-04
0.000122219    	-1.1175823e-04
0.000122649    	-1.2205137e-04
0.00012308     	-1.3273758e-04
0.000123511    	-1.4320236e-04
0.000123942    	-1.5287019e-04
0.000124374    	-1.6136145e-04
0.000124804    	-1.6854997e-04
0.000125235    	-1.7443691e-04
0.000125665    	-1.7895965e-04
0.000126094    	-1.8207689e-04
0.000126523    	-1.8373527e-04
0.000126951    	-1.8391172e-04
0.000127379    	-1.8267192e-04
0.000127806    	-1.8011637e-04
0.000128232    	-1.7634004e-04
0.000128657    	-1.7144342e-04
0.000129082    	-1.6554919e-04
0.000129506    	-1.5880410e-04
0.000129931    	-1.5140611e-04
0.000130357    	-1.4359319e-04
0.000130783    	-1.3565405e-04
0.00013121     	-1.2789215e-04
0.000131639    	-1.2055706e-04
0.000132069    	-1.1385842e-04
0.0001325      	-1.0795214e-04
0.000132932    	-1.0293190e-04
0.000133366    	-9.8849278e-05
0.000133801    	-9.5744187e-05
0.000134236    	-9.3664098e-05
0.000134671    	-9.2621330e-05
0.000135106    	-9.2620570e-05
0.000135541    	-9.3699479e-05
0.000135974    	-9.5876546e-05
0.000136407    	-9.9150594e-05
0.000136837    	-1.0353478e-04
0.000137266    	-1.0902886e-04
0.000137693    	-1.1559111e-04
0.000138118    	-1.2311000e-04
0.000138541    	-1.3136414e-04
0.000138963    	-1.4006288e-04
0.000139384    	-1.4887787e-04
0.000139805    	-1.5748282e-04
0.000140226    	-1.6558605e-04
0.000140647    	-1.7295522e-04
0.00014107     	-1.7942932e-04
0.000141493    	-1.8490087e-04
0.000141918    	-1.8931443e-04
0.000142345    	-1.9267182e-04
0.000142773    	-1.9498706e-04
0.000143202    	-1.9627495e-04
0.000143632    	-1.9657062e-04
0.000144063    	-1.9589738e-04
0.000144495    	-1.9427402e-04
0.000144928    	-1.9173005e-04
0.000145359    	-1.8832481e-04
0.000145791    	-1.8415001e-04
0.000146221    	-1.7933285e-04
0.00014665     	-1.7404540e-04
0.000147079    	-1.6849341e-04
0.000147507    	-1.6289394e-04
0.000147934    	-1.5746011e-04
0.000148361    	-1.5236987e-04
0.000148787    	-1.4775744e-04
0.000149214    	-1.4371456e-04
0.00014964     	-1.4030288e-04
0.000150065    	-1.3756604e-04
0.00015049     	-1.3551917e-04
0.000150914    	-1.3416299e-04
0.000151338    	-1.3349564e-04
0.000151762    	-1.3351594e-04
0.000152187    	-1.3423930e-04
0.000152612    	-1.3569751e-04
0.000153038    	-1.3790162e-04
0.000153465    	-1.4084795e-04
0.000153893    	-1.4450509e-04
0.000154322    	-1.4880731e-04
0.000154752    	-1.5368035e-04
0.000155183    	-1.5902364e-04
0.000155614    	-1.6473399e-04
0.000156047    	-1.7070828e-04
0.00015648     	-1.7685644e-04
0.000156913    	-1.8309093e-04
0.000157345    	-1.8932528e-04
0.000157777    	-1.9548204e-04
0.000158208    	-2.0150766e-04
0.000158638    	-2.0734846e-04
0.000159068    	-2.1293423e-04
0.000159497    	-2.1819654e-04
0.000159926    	-2.2305526e-04
0.000160354    	-2.2741209e-04
0.000160781    	-2.3117390e-04
0.000161206    	-2.3426826e-04
0.000161631    	-2.3664569e-04
0.000162055    	-2.3828333e-04
0.000162479    	-2.3917083e-04
0.000162904    	-2.3929363e-04
0.000163328    	-2.3862040e-04
0.000163754    	-2.3709712e-04
0.00016418     	-2.3467180e-04
0.000164608    	-2.3129630e-04
0.000165037    	-2.2696169e-04
0.000165468    	-2.2169676e-04
0.000165899    	-2.1558752e-04
0.000166332    	-2.0879111e-04
0.000166765    	-2.0151183e-04
0.000167199    	-1.9396925e-04
0.000167633    	-1.8639820e-04
0.000168067    	-1.7904951e-04
0.000168501    	-1.7214363e-04
0.000168933    	-1.6584807e-04
0.000169366    	-1.6028549e-04
0.000169797    	-1.5552359e-04
0.000170227    	-1.5158277e-04
0.000170657    	-1.4846185e-04
0.000171086    	-1.4612957e-04
0.000171513    	-1.4454837e-04
0.000171941    	-1.4368646e-04
0.000172368    	-1.4348581e-04
0.000172795    	-1.4386312e-04
0.000173223    	-1.4473526e-04
0.000173651    	-1.4600019e-04
0.00017408     	-1.4752691e-04
0.00017451     	-1.4914629e-04
0.000174941    	-1.5067991e-04
0.000175373    	-1.5197019e-04
0.000175806    	-1.5289895e-04
0.00017624     	-1.5337024e-04
0.000176675    	-1.5329866e-04
0.000177111    	-1.5261603e-04
0.000177547    	-1.5125371e-04
0.000177985    	-1.4915833e-04
0.000178422    	-1.4628341e-04
0.000178859    	-1.4260835e-04
0.000179295    	-1.3815539e-04
0.00017973     	-1.3299053e-04
0.000180165    	-1.2723292e-04
0.000180598    	-1.2102815e-04
0.000181031    	-1.1453684e-04
0.000181463    	-1.0791749e-04
0.000181894    	-1.0132024e-04
0.000182323    	-9.4865488e-05
0.000182751    	-8.8629328e-05
0.000183178    	-8.2666672e-05
0.000183602    	-7.6985684e-05
0.000184026    	-7.1576605e-05
0.000184448    	-6.6426690e-05
0.000184869    	-6.1494246e-05
0.00018529     	-5.6746111e-05
0.000185712    	-5.2164261e-05
0.000186133    	-4.7736533e-05
0.000186555    	-4.3464517e-05
0.000186978    	-3.9358624e-05
0.000187401    	-3.5450966e-05
0.000187825    	-3.1761033e-05
0.00018825     	-2.8324212e-05
0.000188675    	-2.5187809e-05
0.0001891      	-2.2390943e-05
0.000189525    	-1.9972378e-05
0.000189948    	-1.7997836e-05
0.000190371    	-1.6505745e-05
0.000190792    	-1.5541851e-05
0.000191212    	-1.5133427e-05
0.000191632    	-1.5277550e-05
0.00019205     	-1.5960201e-05
0.00019247     	-1.7170325e-05
0.00019289     	-1.8883979e-05
0.000193312    	-2.1074123e-05
0.000193735    	-2.3711796e-05
0.000194161    	-2.6750473e-05
0.000194588    	-3.0123376e-05
0.000195017    	-3.3744970e-05
0.000195448    	-3.7516243e-05
0.000195881    	-4.1296609e-05
0.000196316    	-4.4960717e-05
0.000196752    	-4.8405985e-05
0.00019719     	-5.1511936e-05
0.000197628    	-5.4181671e-05
0.000198067    	-5.6346503e-05
0.000198508    	-5.7940851e-05
0.000198948    	-5.8924099e-05
0.000199389    	-5.9236593e-05
0.00019983     	-5.8830493e-05
0.000200271    	-5.7675900e-05
0.000200711    	-5.5796375e-05
0.000201151    	-5.3260894e-05
0.00020159     	-5.0173015e-05
0.000202029    	-4.6645037e-05
0.000202466    	-4.2798495e-05
0.000202902    	-3.8753862e-05
0.000203338    	-3.4617055e-05
0.000203772    	-3.0451096e-05
0.000204205    	-2.6290943e-05
0.000204636    	-2.2167671e-05
0.000205067    	-1.8077467e-05
0.000205497    	-1.4030195e-05
0.000205927    	-1.0024560e-05
0.000206355    	-6.0836671e-06
0.000206784    	-2.2460684e-06
0.000207212    	1.4808254e-06
0.00020764     	5.0563480e-06
0.000208068    	8.4734881e-06
0.000208495    	1.1745199e-05
0.000208922    	1.4927338e-05
0.000209348    	1.8119645e-05
0.000209774    	2.1428828e-05
0.000210199    	2.4975528e-05
0.000210622    	2.8879869e-05
0.000211045    	3.3240162e-05
0.000211467    	3.8143203e-05
0.000211887    	4.3631222e-05
0.000212306    	4.9652501e-05
0.000212723    	5.6133220e-05
0.000213139    	6.3018843e-05
0.000213554    	7.0278028e-05
0.000213968    	7.7940962e-05
0.000214382    	8.6086550e-05
0.000214797    	9.4846572e-05
0.000215213    	1.0435851e-04
0.00021563     	1.1471073e-04
0.00021605     	1.2589526e-04
0.000216471    	1.3780119e-04
0.000216894    	1.5025198e-04
0.000217319    	1.6305668e-04
0.000217745    	1.7603271e-04
0.000218174    	1.8906309e-04
0.000218604    	2.0205902e-04
0.000219035    	2.1493694e-04
0.000219468    	2.2761799e-04
0.000219902    	2.4006472e-04
0.000220338    	2.5216911e-04
0.000220774    	2.6384978e-04
0.000221212    	2.7498048e-04
0.000221651    	2.8544616e-04
0.000222089    	2.9514057e-04
0.000222527    	3.0405223e-04
0.000222965    	3.1216656e-04
0.000223402    	3.1947042e-04
0.000223839    	3.2599393e-04
0.000224274    	3.3178108e-04
0.000224709    	3.3688650e-04
0.000225143    	3.4138290e-04
0.000225576    	3.4530307e-04
0.000226008    	3.4866831e-04
0.000226439    	3.5146943e-04
0.000226869    	3.5369114e-04
0.000227297    	3.5533253e-04
0.000227724    	3.5638110e-04
0.000228149    	3.5686675e-04
0.000228572    	3.5680874e-04
0.000228995    	3.5622606e-04
0.000229417    	3.5514392e-04
0.00022984     	3.5359900e-04
0.000230262    	3.5158688e-04
0.000230685    	3.4912068e-04
0.000231109    	3.4625038e-04
0.000231535    	3.4302430e-04
0.000231961    	3.3947022e-04
0.000232389    	3.3562320e-04
0.000232817    	3.3152164e-04
0.000233246    	3.2722800e-04
0.000233676    	3.2279758e-04
0.000234105    	3.1832263e-04
0.000234534    	3.1390794e-04
0.000234961    	3.0964235e-04
0.000235388    	3.0562491e-04
0.000235813    	3.0195201e-04
0.000236238    	2.9869076e-04
0.000236663    	2.9589079e-04
0.000237088    	2.9357523e-04
0.000237512    	2.9175631e-04
0.000237937    	2.9046683e-04
0.000238362    	2.8974171e-04
0.000238788    	2.8962190e-04
0.000239213    	2.9015280e-04
0.000239639    	2.9138287e-04
0.000240065    	2.9334753e-04
0.000240491    	2.9603487e-04
0.000240917    	2.9942062e-04
0.000241343    	3.0345886e-04
0.000241769    	3.0808517e-04
0.000242197    	3.1319231e-04
0.000242625    	3.1869268e-04
0.000243055    	3.2447424e-04
0.000243485    	3.3039013e-04
0.000243917    	3.3628479e-04
0.00024435     	3.4201091e-04
0.000244783    	3.4744933e-04
0.000245218    	3.5255208e-04
0.000245653    	3.5728812e-04
0.000246089    	3.6166634e-04
0.000246524    	3.6566986e-04
0.000246958    	3.6927767e-04
0.000247391    	3.7249323e-04
0.000247822    	3.7534176e-04
0.000248253    	3.7778728e-04
0.000248682    	3.7977853e-04
0.00024911     	3.8126889e-04
0.000249537    	3.8219311e-04
0.000249962    	3.8252169e-04
0.000250386    	3.8225041e-04
0.000250809    	3.8139510e-04
0.000251231    	3.8000164e-04
0.000251652    	3.7810853e-04
0.000252074    	3.7577517e-04
0.000252496    	3.7308253e-04
0.000252919    	3.7010360e-04
0.000253343    	3.6686927e-04
0.000253767    	3.6344529e-04
0.000254194    	3.5988248e-04
0.000254621    	3.5626057e-04
0.00025505     	3.5270404e-04
0.00025548     	3.4936701e-04
0.000255911    	3.4640956e-04
0.000256342    	3.4400314e-04
0.000256774    	3.4228361e-04
0.000257207    	3.4132745e-04
0.000257638    	3.4120410e-04
0.00025807     	3.4194926e-04
0.0002585      	3.4367921e-04
0.00025893     	3.4651583e-04
0.00025936     	3.5052766e-04
0.000259789    	3.5572396e-04
0.000260218    	3.6204644e-04
0.000260647    	3.6930003e-04
0.000261076    	3.7717926e-04
0.000261505    	3.8531137e-04
0.000261935    	3.9335496e-04
0.000262365    	4.0106263e-04
0.000262796    	4.0821853e-04
0.000263227    	4.1462715e-04
0.000263659    	4.2016417e-04
0.000264091    	4.2475046e-04
0.000264523    	4.2834457e-04
0.000264956    	4.3097710e-04
0.000265389    	4.3273162e-04
0.000265821    	4.3370758e-04
0.000266254    	4.3399775e-04
0.000266686    	4.3369886e-04
0.000267118    	4.3292175e-04
0.00026755     	4.3178168e-04
0.000267982    	4.3038178e-04
0.000268415    	4.2880600e-04
0.000268847    	4.2715091e-04
0.00026928     	4.2552207e-04
0.000269712    	4.2403703e-04
0.000270143    	4.2277882e-04
0.000270573    	4.2182720e-04
0.000271002    	4.2125455e-04
0.00027143     	4.2108427e-04
0.000271858    	4.2128891e-04
0.000272284    	4.2183118e-04
0.00027271     	4.2269336e-04
0.000273135    	4.2380803e-04
0.00027356     	4.2509427e-04
0.000273985    	4.2641560e-04
0.00027441     	4.2767823e-04
0.000274835    	4.2877783e-04
0.000275261    	4.2961733e-04
0.000275688    	4.3012694e-04
0.000276115    	4.3024610e-04
0.000276544    	4.2991048e-04
0.000276973    	4.2906713e-04
0.000277403    	4.2767658e-04
0.000277833    	4.2575931e-04
0.000278264    	4.2344724e-04
0.000278695    	4.2090242e-04
0.000279125    	4.1828888e-04
0.000279556    	4.1579198e-04
0.000279986    	4.1355305e-04
0.000280415    	4.1168629e-04
0.000280844    	4.1031926e-04
0.000281273    	4.0959779e-04
0.000281701    	4.0975482e-04
0.000282128    	4.1096476e-04
0.000282555    	4.1336773e-04
0.000282981    	4.1707285e-04
0.000283406    	4.2214145e-04
0.000283831    	4.2855114e-04
0.000284257    	4.3623841e-04
0.000284683    	4.4508148e-04
0.000285111    	4.5473345e-04
0.00028554     	4.6481738e-04
0.00028597     	4.7501627e-04
0.000286402    	4.8506316e-04
0.000286834    	4.9471616e-04
0.000287267    	5.0369329e-04
0.000287702    	5.1176380e-04
0.000288137    	5.1874093e-04
0.000288572    	5.2450484e-04
0.000289009    	5.2903550e-04
0.000289445    	5.3234877e-04
0.000289883    	5.3442415e-04
0.00029032     	5.3530971e-04
0.000290756    	5.3504655e-04
0.000291192    	5.3375738e-04
0.000291626    	5.3164018e-04
0.000292059    	5.2883910e-04
0.000292491    	5.2541187e-04
0.000292922    	5.2133390e-04
0.000293352    	5.1656500e-04
0.00029378     	5.1107671e-04
0.000294206    	5.0489545e-04
0.00029463     	4.9806515e-04
0.000295052    	4.9065270e-04
0.000295474    	4.8274045e-04
0.000295895    	4.7439484e-04
0.000296315    	4.6570109e-04
0.000296736    	4.5672703e-04
0.000297157    	4.4752548e-04
0.000297578    	4.3812332e-04
0.000298       	4.2852097e-04
0.000298423    	4.1873680e-04
0.000298847    	4.0880700e-04
0.000299273    	3.9873786e-04
0.000299699    	3.8857187e-04
0.000300126    	3.7835195e-04
0.000300553    	3.6811143e-04
0.000300979    	3.5790890e-04
0.000301405    	3.4778956e-04
0.000301829    	3.3781795e-04
0.000302253    	3.2806614e-04
0.000302675    	3.1861299e-04
0.000303096    	3.0956537e-04
0.000303516    	3.0099173e-04
0.000303935    	2.9296986e-04
0.000304353    	2.8556900e-04
0.000304772    	2.7885547e-04
0.000305193    	2.7285319e-04
0.000305615    	2.6754999e-04
0.000306039    	2.6293045e-04
0.000306464    	2.5897708e-04
0.000306892    	2.5567418e-04
0.000307321    	2.5297835e-04
0.000307752    	2.5079856e-04
0.000308185    	2.4901421e-04
0.00030862     	2.4751960e-04
0.000309055    	2.4623112e-04
0.000309492    	2.4507949e-04
0.00030993     	2.4403400e-04
0.000310369    	2.4303302e-04
0.000310808    	2.4198967e-04
0.000311249    	2.4081254e-04
0.000311689    	2.3939936e-04
0.00031213     	2.3768670e-04
0.00031257     	2.3562762e-04
0.00031301     	2.3321619e-04
0.000313448    	2.3047975e-04
0.000313885    	2.2745836e-04
0.000314321    	2.2421069e-04
0.000314756    	2.2081632e-04
0.000315189    	2.1735480e-04
0.000315621    	2.1390021e-04
0.000316051    	2.1047708e-04
0.000316481    	2.0710506e-04
0.000316908    	2.0383389e-04
0.000317334    	2.0073752e-04
0.000317759    	1.9790473e-04
0.000318182    	1.9543783e-04
0.000318604    	1.9346128e-04
0.000319026    	1.9209323e-04
0.000319448    	1.9141314e-04
0.000319869    	1.9149779e-04
0.000320292    	1.9242401e-04
0.000320715    	1.9422795e-04
0.000321138    	1.9690733e-04
0.000321563    	2.0045277e-04
0.000321989    	2.0489070e-04
0.000322416    	2.1022443e-04
0.000322843    	2.1640338e-04
0.00032327     	2.2337699e-04
0.000323697    	2.3106499e-04
0.000324123    	2.3931373e-04
0.000324547    	2.4792279e-04
0.000324971    	2.5673947e-04
0.000325394    	2.6558418e-04
0.000325817    	2.7425973e-04
0.00032624     	2.8262157e-04
0.000326664    	2.9055814e-04
0.000327088    	2.9799219e-04
0.000327513    	3.0488803e-04
0.000327939    	3.1128371e-04
0.000328366    	3.1721427e-04
0.000328794    	3.2271274e-04
0.000329222    	3.2773078e-04
0.000329652    	3.3225158e-04
0.000330082    	3.3630984e-04
0.000330514    	3.3992277e-04
0.000330946    	3.4307069e-04
0.000331379    	3.4571380e-04
0.000331813    	3.4780618e-04
0.000332248    	3.4930069e-04
0.000332684    	3.5017152e-04
0.000333121    	3.5040171e-04
0.000333558    	3.5000061e-04
0.000333995    	3.4900246e-04
0.000334433    	3.4744506e-04
0.00033487     	3.4540255e-04
0.000335308    	3.4293198e-04
0.000335744    	3.4004258e-04
0.000336181    	3.3667932e-04
0.000336616    	3.3279339e-04
0.000337051    	3.2838353e-04
0.000337485    	3.2349484e-04
0.000337918    	3.1821762e-04
0.000338351    	3.1265017e-04
0.000338781    	3.0690403e-04
0.000339211    	3.0110963e-04
0.000339638    	2.9538645e-04
0.000340064    	2.8984174e-04
0.000340489    	2.8459017e-04
0.000340913    	2.7971908e-04
0.000341336    	2.7526651e-04
0.000341759    	2.7121795e-04
0.000342181    	2.6754902e-04
0.000342604    	2.6425441e-04
0.000343027    	2.6132873e-04
0.000343451    	2.5877774e-04
0.000343875    	2.5658583e-04
0.000344301    	2.5472225e-04
0.000344727    	2.5311742e-04
0.000345154    	2.5169459e-04
0.000345582    	2.5036480e-04
0.000346009    	2.4903744e-04
0.000346436    	2.4764320e-04
0.000346862    	2.4612557e-04
0.000347287    	2.4444895e-04
0.000347712    	2.4258051e-04
0.000348136    	2.4047069e-04
0.000348559    	2.3804594e-04
0.000348982    	2.3522265e-04
0.000349406    	2.3189377e-04
0.000349829    	2.2798454e-04
0.000350253    	2.2343766e-04
0.000350677    	2.1822494e-04
0.000351102    	2.1234490e-04
0.000351529    	2.0582032e-04
0.000351956    	1.9866881e-04
0.000352385    	1.9093516e-04
0.000352815    	1.8268257e-04
0.000353245    	1.7397908e-04
0.000353677    	1.6491413e-04
0.000354109    	1.5556514e-04
0.000354542    	1.4599200e-04
0.000354976    	1.3625400e-04
0.000355409    	1.2638641e-04
0.000355844    	1.1643491e-04
0.000356278    	1.0646252e-04
0.000356713    	9.6490084e-05
0.000357149    	8.6550276e-05
0.000357585    	7.6677502e-05
0.000358021    	6.6903612e-05
0.000358456    	5.7192846e-05
0.000358891    	4.7598084e-05
0.000359325    	3.8151090e-05
0.000359758    	2.8852868e-05
0.00036019     	1.9802536e-05
0.000360621    	1.1107804e-05
0.000361052    	2.8310911e-06
0.000361482    	-4.8467900e-06
0.00036191     	-1.1892765e-05
0.000362338    	-1.8957715e-05
0.000362765    	-2.7301514e-05
0.000363192    	-3.6827911e-05
0.000363619    	-4.5726648e-05
0.000364046    	-5.3546114e-05
0.000364472    	-5.9903183e-05
0.0003649      	-6.5210503e-05
0.000365328    	-6.9214011e-05
0.000365757    	-7.2201103e-05
0.000366187    	-7.4550362e-05
0.000366618    	-7.6607799e-05
0.000367049    	-7.8008293e-05
0.000367482    	-7.8694183e-05
0.000367915    	-7.8576568e-05
0.000368349    	-7.7687864e-05
0.000368784    	-7.6068009e-05
0.000369218    	-7.3773219e-05
0.000369652    	-7.0910395e-05
0.000370085    	-6.7575154e-05
0.000370517    	-6.3876512e-05
0.000370949    	-5.9912125e-05
0.000371379    	-5.5780288e-05
0.000371808    	-5.1567041e-05
0.000372237    	-4.7335273e-05
0.000372665    	-4.3143091e-05
0.000373091    	-3.9056053e-05
0.000373517    	-3.5135102e-05
0.000373943    	-3.1435552e-05
0.000374368    	-2.8010814e-05
0.000374794    	-2.4908152e-05
0.000375219    	-2.2159465e-05
0.000375646    	-1.9793755e-05
0.000376073    	-1.7821749e-05
0.000376501    	-1.6251892e-05
0.000376931    	-1.5094317e-05
0.000377361    	-1.4340658e-05
0.000377792    	-1.4015311e-05
0.000378224    	-1.4133362e-05
0.000378656    	-1.4684486e-05
0.000379089    	-1.5652430e-05
0.000379522    	-1.7010773e-05
0.000379955    	-1.8737462e-05
0.000380388    	-2.0792387e-05
0.00038082     	-2.3135798e-05
0.000381251    	-2.5684325e-05
0.000381682    	-2.8285423e-05
0.000382111    	-3.0783707e-05
0.000382541    	-3.3058083e-05
0.000382969    	-3.5031048e-05
0.000383396    	-3.6635636e-05
0.000383823    	-3.7828456e-05
0.000384249    	-3.8592486e-05
0.000384674    	-3.8915512e-05
0.000385098    	-3.8777011e-05
0.000385522    	-3.8143281e-05
0.000385947    	-3.6968412e-05
0.000386372    	-3.5199865e-05
0.000386797    	-3.2800471e-05
0.000387224    	-2.9758786e-05
0.000387651    	-2.6095049e-05
0.000388079    	-2.1863137e-05
0.000388509    	-1.7163314e-05
0.000388939    	-1.2125619e-05
0.00038937     	-6.8861770e-06
0.000389803    	-1.6070461e-06
0.000390235    	3.5537068e-06
0.000390669    	8.4740988e-06
0.000391102    	1.3039914e-05
0.000391535    	1.7169733e-05
0.000391968    	2.0858706e-05
0.0003924      	2.4053564e-05
0.000392832    	2.6713746e-05
0.000393263    	2.8832702e-05
0.000393694    	3.0402210e-05
0.000394124    	3.1395478e-05
0.000394554    	3.1795309e-05
0.000394981    	3.1611858e-05
0.000395407    	3.0879645e-05
0.000395832    	2.9660634e-05
0.000396256    	2.8034239e-05
0.000396679    	2.6083814e-05
0.000397103    	2.3897287e-05
0.000397527    	2.1553384e-05
0.000397953    	1.9130573e-05
0.000398379    	1.6665200e-05
0.000398808    	1.4144846e-05
0.000399237    	1.1618784e-05
0.000399668    	8.9922496e-06
0.0004001      	6.2791376e-06
0.000400534    	3.5468907e-06
0.000400968    	6.9088145e-07
0.000401403    	-2.2025017e-06
0.00040184     	-5.1147467e-06
0.000402276    	-8.1041955e-06
0.000402714    	-1.1067967e-05
0.000403151    	-1.4175436e-05
0.000403587    	-1.7444881e-05
0.000404023    	-2.0981146e-05
0.000404458    	-2.4698063e-05
0.000404892    	-2.8567914e-05
0.000405324    	-3.2691068e-05
0.000405756    	-3.6904891e-05
0.000406185    	-4.1074174e-05
0.000406613    	-4.5075559e-05
0.000407039    	-4.8811961e-05
0.000407463    	-5.2197593e-05
0.000407887    	-5.5178427e-05
0.00040831     	-5.7733905e-05
0.000408732    	-5.9866353e-05
0.000409155    	-6.1586696e-05
0.000409577    	-6.2892523e-05
0.00041        	-6.3771223e-05
0.000410424    	-6.4207723e-05
0.000410849    	-6.4172273e-05
0.000411274    	-6.3627675e-05
0.0004117      	-6.2536766e-05
0.000412126    	-6.0864174e-05
0.000412553    	-5.8581289e-05
0.000412979    	-5.5668979e-05
0.000413405    	-5.2123148e-05
0.000413829    	-4.7956300e-05
0.000414252    	-4.3163382e-05
0.000414674    	-3.7662079e-05
0.000415095    	-3.1287219e-05
0.000415516    	-2.3816465e-05
0.000415937    	-1.4904871e-05
0.000416361    	-4.0919320e-06
0.000416785    	9.1358302e-06
0.000417211    	2.5344267e-05
0.00041764     	4.4784008e-05
0.00041807     	6.8006091e-05
0.000418502    	9.5440812e-05
0.000418936    	1.2698549e-04
0.000419371    	1.6200593e-04
0.000419808    	1.9943029e-04
0.000420246    	2.3791131e-04
0.000420685    	2.7611054e-04
0.000421125    	3.1299151e-04
0.000421565    	3.4766999e-04