# Region type : patch inlet
# Faces  :     286
# Area   :     1.5738454e-05
# Time         	sum(phi)
0              	0.0000000e+00
4.83925e-07    	-5.0175085e-04
8.8826e-07     	-5.0751227e-04
1.29259e-06    	-5.1257506e-04
1.69693e-06    	-5.0207882e-04
2.10126e-06    	-4.8480759e-04
2.5056e-06     	-4.7492803e-04
2.90993e-06    	-4.7060865e-04
3.31427e-06    	-4.6634142e-04
3.7186e-06     	-4.6429761e-04
4.12294e-06    	-4.6379502e-04
4.52728e-06    	-4.6277310e-04
4.9316e-06     	-4.6402605e-04
5.33592e-06    	-4.6591449e-04
5.74025e-06    	-4.6978701e-04
6.1446e-06     	-4.7711781e-04
6.54898e-06    	-4.8615036e-04
6.95339e-06    	-4.9817419e-04
7.35798e-06    	-5.1266972e-04
7.76253e-06    	-5.2932101e-04
8.16708e-06    	-5.4788649e-04
8.57163e-06    	-5.6800507e-04
8.97618e-06    	-5.8871631e-04
9.38073e-06    	-6.0993762e-04
9.78526e-06    	-6.3098802e-04
1.01898e-05    	-6.5116959e-04
1.05943e-05    	-6.7114043e-04
1.09989e-05    	-6.8972635e-04
1.14035e-05    	-7.0746420e-04
1.1808e-05     	-7.2438058e-04
1.22126e-05    	-7.3963589e-04
1.26172e-05    	-7.5360024e-04
1.30218e-05    	-7.6688448e-04
1.34266e-05    	-7.7830659e-04
1.38313e-05    	-7.8857992e-04
1.42361e-05    	-7.9882606e-04
1.4641e-05     	-8.0800084e-04
1.50458e-05    	-8.1716288e-04
1.54506e-05    	-8.2603212e-04
1.58553e-05    	-8.3471574e-04
1.62601e-05    	-8.4361755e-04
1.66649e-05    	-8.5260985e-04
1.70696e-05    	-8.6172466e-04
1.74743e-05    	-8.7102059e-04
1.78791e-05    	-8.8042485e-04
1.82838e-05    	-8.8994886e-04
1.86885e-05    	-8.9947922e-04
1.90933e-05    	-9.0890082e-04
1.9498e-05     	-9.1822964e-04
1.99027e-05    	-9.2737910e-04
2.03075e-05    	-9.3606578e-04
2.07124e-05    	-9.4468844e-04
2.11172e-05    	-9.5340637e-04
2.1522e-05     	-9.6198554e-04
2.19269e-05    	-9.7065055e-04
2.23317e-05    	-9.7954119e-04
2.27365e-05    	-9.8861804e-04
2.31414e-05    	-9.9794802e-04
2.35462e-05    	-1.0075491e-03
2.3951e-05     	-1.0173890e-03
2.43559e-05    	-1.0274527e-03
2.47607e-05    	-1.0376746e-03
2.51655e-05    	-1.0479773e-03
2.55703e-05    	-1.0582711e-03
2.59751e-05    	-1.0684775e-03
2.63799e-05    	-1.0785126e-03
2.67847e-05    	-1.0882907e-03
2.71895e-05    	-1.0977654e-03
2.75943e-05    	-1.1068593e-03
2.79992e-05    	-1.1155310e-03
2.84041e-05    	-1.1237651e-03
2.8809e-05     	-1.1315534e-03
2.92139e-05    	-1.1389350e-03
2.96187e-05    	-1.1459445e-03
3.00236e-05    	-1.1526320e-03
3.04285e-05    	-1.1590411e-03
3.08334e-05    	-1.1652237e-03
3.12383e-05    	-1.1712617e-03
3.16432e-05    	-1.1771910e-03
3.20481e-05    	-1.1830424e-03
3.2453e-05     	-1.1888220e-03
3.2858e-05     	-1.1945115e-03
3.32629e-05    	-1.2000795e-03
3.36678e-05    	-1.2054637e-03
3.40728e-05    	-1.2105784e-03
3.44777e-05    	-1.2153173e-03
3.48827e-05    	-1.2195626e-03
3.52876e-05    	-1.2231767e-03
3.56926e-05    	-1.2260573e-03
3.60976e-05    	-1.2281047e-03
3.65026e-05    	-1.2292172e-03
3.69075e-05    	-1.2293400e-03
3.73125e-05    	-1.2284916e-03
3.77175e-05    	-1.2267467e-03
3.81225e-05    	-1.2242390e-03
3.85274e-05    	-1.2211220e-03
3.89324e-05    	-1.2175753e-03
3.93374e-05    	-1.2137896e-03
3.97423e-05    	-1.2099454e-03
4.01473e-05    	-1.2062162e-03
4.05523e-05    	-1.2027534e-03
4.09572e-05    	-1.1996700e-03
4.13622e-05    	-1.1970398e-03
4.17672e-05    	-1.1949026e-03
4.21722e-05    	-1.1932611e-03
4.25771e-05    	-1.1920749e-03
4.29821e-05    	-1.1912866e-03
4.33871e-05    	-1.1908273e-03
4.37921e-05    	-1.1906307e-03
4.41971e-05    	-1.1906305e-03
4.4602e-05     	-1.1907705e-03
4.5007e-05     	-1.1909987e-03
4.5412e-05     	-1.1912879e-03
4.5817e-05     	-1.1916299e-03
4.6222e-05     	-1.1920367e-03
4.6627e-05     	-1.1925310e-03
4.70319e-05    	-1.1931428e-03
4.74369e-05    	-1.1939064e-03
4.78419e-05    	-1.1948544e-03
4.82469e-05    	-1.1960217e-03
4.86519e-05    	-1.1974369e-03
4.90569e-05    	-1.1991181e-03
4.94618e-05    	-1.2010693e-03
4.98668e-05    	-1.2032686e-03
5.02718e-05    	-1.2056962e-03
5.06768e-05    	-1.2083244e-03
5.10818e-05    	-1.2111254e-03
5.14868e-05    	-1.2140641e-03
5.18918e-05    	-1.2171067e-03
5.22967e-05    	-1.2202169e-03
5.27017e-05    	-1.2233542e-03
5.31067e-05    	-1.2264786e-03
5.35117e-05    	-1.2295598e-03
5.39167e-05    	-1.2325717e-03
5.43217e-05    	-1.2354900e-03
5.47266e-05    	-1.2382969e-03
5.51316e-05    	-1.2409787e-03
5.55366e-05    	-1.2435287e-03
5.59416e-05    	-1.2459533e-03
5.63466e-05    	-1.2482638e-03
5.67516e-05    	-1.2504764e-03
5.71566e-05    	-1.2526118e-03
5.75615e-05    	-1.2546930e-03
5.79665e-05    	-1.2567462e-03
5.83715e-05    	-1.2587977e-03
5.87765e-05    	-1.2608701e-03
5.91815e-05    	-1.2629828e-03
5.95865e-05    	-1.2651508e-03
5.99914e-05    	-1.2673833e-03
6.03964e-05    	-1.2696817e-03
6.08014e-05    	-1.2720384e-03
6.12064e-05    	-1.2744429e-03
6.16114e-05    	-1.2768803e-03
6.20164e-05    	-1.2793284e-03
6.24214e-05    	-1.2817593e-03
6.28263e-05    	-1.2841424e-03
6.32313e-05    	-1.2864415e-03
6.36363e-05    	-1.2886270e-03
6.40413e-05    	-1.2906618e-03
6.44463e-05    	-1.2925183e-03
6.48513e-05    	-1.2941724e-03
6.52563e-05    	-1.2956058e-03
6.56613e-05    	-1.2967998e-03
6.60663e-05    	-1.2977295e-03
6.64713e-05    	-1.2983804e-03
6.68763e-05    	-1.2987462e-03
6.72813e-05    	-1.2988185e-03
6.76863e-05    	-1.2985903e-03
6.80913e-05    	-1.2980577e-03
6.84963e-05    	-1.2972274e-03
6.89013e-05    	-1.2961123e-03
6.93063e-05    	-1.2947369e-03
6.97113e-05    	-1.2931297e-03
7.01163e-05    	-1.2913244e-03
7.05214e-05    	-1.2893609e-03
7.09264e-05    	-1.2872731e-03
7.13314e-05    	-1.2850956e-03
7.17364e-05    	-1.2828761e-03
7.21414e-05    	-1.2806585e-03
7.25464e-05    	-1.2784821e-03
7.29514e-05    	-1.2763912e-03
7.33564e-05    	-1.2744313e-03
7.37615e-05    	-1.2726401e-03
7.41665e-05    	-1.2710458e-03
7.45715e-05    	-1.2696782e-03
7.49765e-05    	-1.2685611e-03
7.53815e-05    	-1.2677150e-03
7.57865e-05    	-1.2671551e-03
7.61916e-05    	-1.2668908e-03
7.65966e-05    	-1.2669277e-03
7.70016e-05    	-1.2672673e-03
7.74066e-05    	-1.2679012e-03
7.78116e-05    	-1.2688070e-03
7.82167e-05    	-1.2699620e-03
7.86217e-05    	-1.2713447e-03
7.90267e-05    	-1.2729256e-03
7.94317e-05    	-1.2746751e-03
7.98367e-05    	-1.2765583e-03
8.02418e-05    	-1.2785358e-03
8.06468e-05    	-1.2805664e-03
8.10518e-05    	-1.2826125e-03
8.14568e-05    	-1.2846383e-03
8.18618e-05    	-1.2866126e-03
8.22669e-05    	-1.2885099e-03
8.26719e-05    	-1.2903078e-03
8.30769e-05    	-1.2919868e-03
8.34819e-05    	-1.2935358e-03
8.38869e-05    	-1.2949499e-03
8.42919e-05    	-1.2962220e-03
8.46969e-05    	-1.2973520e-03
8.51019e-05    	-1.2983450e-03
8.55069e-05    	-1.2992129e-03
8.59119e-05    	-1.2999695e-03
8.63169e-05    	-1.3006263e-03
8.67219e-05    	-1.3011950e-03
8.71269e-05    	-1.3016870e-03
8.75319e-05    	-1.3021153e-03
8.79369e-05    	-1.3024928e-03
8.83419e-05    	-1.3028337e-03
8.87469e-05    	-1.3031507e-03
8.91519e-05    	-1.3034567e-03
8.95569e-05    	-1.3037636e-03
8.99619e-05    	-1.3040828e-03
9.03669e-05    	-1.3044257e-03
9.07719e-05    	-1.3048030e-03
9.11769e-05    	-1.3052240e-03
9.15819e-05    	-1.3056987e-03
9.19869e-05    	-1.3062378e-03
9.23919e-05    	-1.3068503e-03
9.27969e-05    	-1.3075428e-03
9.32019e-05    	-1.3083217e-03
9.36069e-05    	-1.3091910e-03
9.40119e-05    	-1.3101516e-03
9.44169e-05    	-1.3112021e-03
9.4822e-05     	-1.3123380e-03
9.5227e-05     	-1.3135510e-03
9.5632e-05     	-1.3148285e-03
9.6037e-05     	-1.3161562e-03
9.6442e-05     	-1.3175177e-03
9.68471e-05    	-1.3188926e-03
9.72521e-05    	-1.3202575e-03
9.76571e-05    	-1.3215867e-03
9.80621e-05    	-1.3228546e-03
9.84671e-05    	-1.3240352e-03
9.88722e-05    	-1.3251016e-03
9.92772e-05    	-1.3260302e-03
9.96822e-05    	-1.3268023e-03
0.000100087    	-1.3274011e-03
0.000100492    	-1.3278184e-03
0.000100897    	-1.3280523e-03
0.000101302    	-1.3281009e-03
0.000101707    	-1.3279650e-03
0.000102112    	-1.3276490e-03
0.000102517    	-1.3271680e-03
0.000102922    	-1.3265397e-03
0.000103327    	-1.3257878e-03
0.000103732    	-1.3249368e-03
0.000104137    	-1.3240124e-03
0.000104542    	-1.3230411e-03
0.000104947    	-1.3220491e-03
0.000105352    	-1.3210631e-03
0.000105757    	-1.3201097e-03
0.000106163    	-1.3192125e-03
0.000106568    	-1.3183937e-03
0.000106973    	-1.3176733e-03
0.000107378    	-1.3170668e-03
0.000107783    	-1.3165860e-03
0.000108188    	-1.3162405e-03
0.000108593    	-1.3160351e-03
0.000108998    	-1.3159715e-03
0.000109403    	-1.3160457e-03
0.000109808    	-1.3162498e-03
0.000110213    	-1.3165734e-03
0.000110618    	-1.3170020e-03
0.000111023    	-1.3175187e-03
0.000111428    	-1.3181065e-03
0.000111833    	-1.3187508e-03
0.000112238    	-1.3194337e-03
0.000112643    	-1.3201398e-03
0.000113048    	-1.3208544e-03
0.000113453    	-1.3215661e-03
0.000113858    	-1.3222651e-03
0.000114263    	-1.3229439e-03
0.000114668    	-1.3235959e-03
0.000115073    	-1.3242200e-03
0.000115478    	-1.3248158e-03
0.000115883    	-1.3253854e-03
0.000116288    	-1.3259362e-03
0.000116693    	-1.3264750e-03
0.000117098    	-1.3270066e-03
0.000117503    	-1.3275394e-03
0.000117908    	-1.3280795e-03
0.000118313    	-1.3286331e-03
0.000118718    	-1.3292094e-03
0.000119123    	-1.3298169e-03
0.000119528    	-1.3304601e-03
0.000119933    	-1.3311450e-03
0.000120338    	-1.3318740e-03
0.000120743    	-1.3326476e-03
0.000121148    	-1.3334688e-03
0.000121553    	-1.3343376e-03
0.000121958    	-1.3352480e-03
0.000122363    	-1.3361977e-03
0.000122768    	-1.3371792e-03
0.000123173    	-1.3381823e-03
0.000123578    	-1.3392004e-03
0.000123983    	-1.3402268e-03
0.000124388    	-1.3412517e-03
0.000124793    	-1.3422675e-03
0.000125198    	-1.3432644e-03
0.000125603    	-1.3442319e-03
0.000126008    	-1.3451646e-03
0.000126413    	-1.3460569e-03
0.000126818    	-1.3469018e-03
0.000127224    	-1.3476942e-03
0.000127629    	-1.3484303e-03
0.000128034    	-1.3491068e-03
0.000128439    	-1.3497213e-03
0.000128844    	-1.3502719e-03
0.000129249    	-1.3507562e-03
0.000129654    	-1.3511736e-03
0.000130059    	-1.3515256e-03
0.000130464    	-1.3518134e-03
0.000130869    	-1.3520398e-03
0.000131274    	-1.3522066e-03
0.000131679    	-1.3523163e-03
0.000132084    	-1.3523727e-03
0.000132489    	-1.3523796e-03
0.000132894    	-1.3523411e-03
0.000133299    	-1.3522614e-03
0.000133704    	-1.3521451e-03
0.000134109    	-1.3519970e-03
0.000134514    	-1.3518230e-03
0.000134919    	-1.3516319e-03
0.000135324    	-1.3514271e-03
0.000135729    	-1.3512128e-03
0.000136134    	-1.3509948e-03
0.000136539    	-1.3507778e-03
0.000136944    	-1.3505672e-03
0.000137349    	-1.3503684e-03
0.000137754    	-1.3501860e-03
0.000138159    	-1.3500258e-03
0.000138564    	-1.3498910e-03
0.000138969    	-1.3497859e-03
0.000139374    	-1.3497143e-03
0.000139779    	-1.3496791e-03
0.000140184    	-1.3496835e-03
0.000140589    	-1.3497293e-03
0.000140994    	-1.3498178e-03
0.000141399    	-1.3499502e-03
0.000141804    	-1.3501259e-03
0.000142209    	-1.3503444e-03
0.000142614    	-1.3506043e-03
0.000143019    	-1.3509030e-03
0.000143424    	-1.3512387e-03
0.000143829    	-1.3516077e-03
0.000144234    	-1.3520081e-03
0.000144639    	-1.3524361e-03
0.000145044    	-1.3528894e-03
0.000145449    	-1.3533655e-03
0.000145854    	-1.3538618e-03
0.000146259    	-1.3543751e-03
0.000146664    	-1.3549019e-03
0.000147069    	-1.3554402e-03
0.000147474    	-1.3559905e-03
0.00014788     	-1.3565491e-03
0.000148285    	-1.3571144e-03
0.00014869     	-1.3576859e-03
0.000149095    	-1.3582605e-03
0.0001495      	-1.3588367e-03
0.000149905    	-1.3594164e-03
0.00015031     	-1.3599987e-03
0.000150715    	-1.3605826e-03
0.00015112     	-1.3611689e-03
0.000151525    	-1.3617577e-03
0.00015193     	-1.3623481e-03
0.000152335    	-1.3629406e-03
0.00015274     	-1.3635383e-03
0.000153145    	-1.3641412e-03
0.00015355     	-1.3647491e-03
0.000153955    	-1.3653637e-03
0.00015436     	-1.3659852e-03
0.000154765    	-1.3666126e-03
0.00015517     	-1.3672462e-03
0.000155575    	-1.3678886e-03
0.00015598     	-1.3685394e-03
0.000156385    	-1.3691978e-03
0.00015679     	-1.3698641e-03
0.000157195    	-1.3705377e-03
0.0001576      	-1.3712156e-03
0.000158005    	-1.3718969e-03
0.00015841     	-1.3725820e-03
0.000158815    	-1.3732674e-03
0.00015922     	-1.3739497e-03
0.000159625    	-1.3746262e-03
0.00016003     	-1.3752931e-03
0.000160435    	-1.3759468e-03
0.00016084     	-1.3765835e-03
0.000161245    	-1.3771997e-03
0.00016165     	-1.3777912e-03
0.000162055    	-1.3783533e-03
0.00016246     	-1.3788812e-03
0.000162865    	-1.3793705e-03
0.00016327     	-1.3798170e-03
0.000163675    	-1.3802176e-03
0.00016408     	-1.3805692e-03
0.000164485    	-1.3808694e-03
0.00016489     	-1.3811153e-03
0.000165295    	-1.3813048e-03
0.0001657      	-1.3814370e-03
0.000166105    	-1.3815110e-03
0.00016651     	-1.3815272e-03
0.000166915    	-1.3814861e-03
0.00016732     	-1.3813891e-03
0.000167725    	-1.3812378e-03
0.00016813     	-1.3810346e-03
0.000168535    	-1.3807822e-03
0.00016894     	-1.3804832e-03
0.000169345    	-1.3801405e-03
0.00016975     	-1.3797568e-03
0.000170155    	-1.3793358e-03
0.00017056     	-1.3788803e-03
0.000170965    	-1.3783927e-03
0.00017137     	-1.3778750e-03
0.000171775    	-1.3773287e-03
0.00017218     	-1.3767550e-03
0.000172585    	-1.3761551e-03
0.00017299     	-1.3755295e-03
0.000173395    	-1.3748759e-03
0.0001738      	-1.3741936e-03
0.000174205    	-1.3734817e-03
0.00017461     	-1.3727397e-03
0.000175015    	-1.3719648e-03
0.00017542     	-1.3711504e-03
0.000175825    	-1.3702914e-03
0.00017623     	-1.3693843e-03
0.000176635    	-1.3684239e-03
0.00017704     	-1.3674050e-03
0.000177445    	-1.3663184e-03
0.00017785     	-1.3651537e-03
0.000178255    	-1.3639020e-03
0.00017866     	-1.3625538e-03
0.000179065    	-1.3610998e-03
0.00017947     	-1.3595312e-03
0.000179875    	-1.3578361e-03
0.00018028     	-1.3560035e-03
0.000180685    	-1.3540228e-03
0.00018109     	-1.3518842e-03
0.000181495    	-1.3495771e-03
0.0001819      	-1.3470858e-03
0.000182305    	-1.3443944e-03
0.00018271     	-1.3414926e-03
0.000183115    	-1.3383709e-03
0.00018352     	-1.3350110e-03
0.000183925    	-1.3313922e-03
0.00018433     	-1.3274969e-03
0.000184735    	-1.3233090e-03
0.00018514     	-1.3188211e-03
0.000185545    	-1.3140216e-03
0.00018595     	-1.3089027e-03
0.000186355    	-1.3034349e-03
0.00018676     	-1.2976060e-03
0.000187165    	-1.2914059e-03
0.00018757     	-1.2848079e-03
0.000187975    	-1.2777969e-03
0.00018838     	-1.2703577e-03
0.000188785    	-1.2624709e-03
0.00018919     	-1.2541229e-03
0.000189595    	-1.2452887e-03
0.00019        	-1.2359440e-03
0.000190405    	-1.2260822e-03
0.00019081     	-1.2156909e-03
0.000191215    	-1.2047602e-03
0.00019162     	-1.1932654e-03
0.000192025    	-1.1811960e-03
0.00019243     	-1.1685675e-03
0.000192835    	-1.1553743e-03
0.00019324     	-1.1416075e-03
0.000193645    	-1.1272522e-03
0.00019405     	-1.1123363e-03
0.000194455    	-1.0968727e-03
0.00019486     	-1.0808637e-03
0.000195265    	-1.0643294e-03
0.00019567     	-1.0472997e-03
0.000196075    	-1.0297814e-03
0.00019648     	-1.0118060e-03
0.000196885    	-9.9339247e-04
0.00019729     	-9.7456224e-04
0.000197695    	-9.5532990e-04
0.0001981      	-9.3572003e-04
0.000198505    	-9.1577240e-04
0.00019891     	-8.9552562e-04
0.000199315    	-8.7503367e-04
0.00019972     	-8.5430113e-04
0.000200125    	-8.3335411e-04
0.00020053     	-8.1222627e-04
0.000200935    	-7.9095445e-04
0.00020134     	-7.6954046e-04
0.000201745    	-7.4804880e-04
0.00020215     	-7.2654794e-04
0.000202555    	-7.0496450e-04
0.00020296     	-6.8341764e-04
0.000203365    	-6.6206032e-04
0.00020377     	-6.4053181e-04
0.000204175    	-6.1920081e-04
0.00020458     	-5.9844076e-04
0.000204985    	-5.7685416e-04
0.00020539     	-5.5611192e-04
0.000205795    	-5.3598225e-04
0.0002062      	-5.1461431e-04
0.000206605    	-4.9475805e-04
0.00020701     	-4.7492966e-04
0.000207415    	-4.5426998e-04
0.00020782     	-4.3540657e-04
0.000208225    	-4.1593746e-04
0.00020863     	-3.9620735e-04
0.000209035    	-3.7824966e-04
0.00020944     	-3.5910894e-04
0.000209845    	-3.4080039e-04
0.00021025     	-3.2364566e-04
0.000210655    	-3.0527989e-04
0.00021106     	-2.8863336e-04
0.000211465    	-2.7219027e-04
0.00021187     	-2.5528131e-04
0.000212275    	-2.4008809e-04
0.00021268     	-2.2418101e-04
0.000213085    	-2.0922066e-04
0.00021349     	-1.9517629e-04
0.000213895    	-1.8017893e-04
0.0002143      	-1.6712492e-04
0.000214705    	-1.5357727e-04
0.00021511     	-1.4056430e-04
0.000215515    	-1.2834785e-04
0.00021592     	-1.1560369e-04
0.000216325    	-1.0457643e-04
0.00021673     	-9.2864414e-05
0.000217135    	-8.1798127e-05
0.00021754     	-7.1424990e-05
0.000217945    	-6.0812103e-05
0.00021835     	-5.1585711e-05
0.000218755    	-4.1599655e-05
0.00021916     	-3.2638835e-05
0.000219565    	-2.3919351e-05
0.00021997     	-1.5129354e-05
0.000220375    	-7.2817414e-06
0.00022078     	1.0775479e-06
0.000221185    	8.6531161e-06
0.00022159     	1.5896286e-05
0.000221995    	2.3406577e-05
0.0002224      	2.9945185e-05
0.000222805    	3.6533681e-05
0.00022321     	4.3226070e-05
0.000223615    	4.8955248e-05
0.00022402     	5.4701197e-05
0.000224425    	6.0648922e-05
0.00022483     	6.5857815e-05
0.000225235    	7.0819024e-05
0.00022564     	7.5892048e-05
0.000226045    	8.0738907e-05
0.00022645     	8.5088866e-05
0.000226855    	8.9377493e-05
0.00022726     	9.3641171e-05
0.000227665    	9.7704681e-05
0.00022807     	1.0150065e-04
0.000228475    	1.0524902e-04
0.00022888     	1.0884563e-04
0.000229285    	1.1227029e-04
0.00022969     	1.1561013e-04
0.000230095    	1.1882162e-04
0.0002305      	1.2193463e-04
0.000230905    	1.2497564e-04
0.00023131     	1.2793163e-04
0.000231715    	1.3083080e-04
0.00023212     	1.3364815e-04
0.000232525    	1.3638154e-04
0.00023293     	1.3906835e-04
0.000233335    	1.4172158e-04
0.00023374     	1.4429618e-04
0.000234145    	1.4681097e-04
0.00023455     	1.4928486e-04
0.000234955    	1.5168369e-04
0.00023536     	1.5401472e-04
0.000235765    	1.5629620e-04
0.00023617     	1.5851202e-04
0.000236575    	1.6067144e-04
0.00023698     	1.6277844e-04
0.000237385    	1.6482047e-04
0.00023779     	1.6679843e-04
0.000238195    	1.6872396e-04
0.0002386      	1.7060114e-04
0.000239005    	1.7242816e-04
0.00023941     	1.7419544e-04
0.000239815    	1.7593403e-04
0.00024022     	1.7763291e-04
0.000240625    	1.7925054e-04
0.00024103     	1.8083484e-04
0.000241435    	1.8244430e-04
0.00024184     	1.8400944e-04
0.000242245    	1.8546139e-04
0.00024265     	1.8704581e-04
0.000243055    	1.8848302e-04
0.00024346     	1.8985053e-04
0.000243865    	1.9141732e-04
0.00024427     	1.9277926e-04
0.000244675    	1.9414597e-04
0.00024508     	1.9570113e-04
0.000245485    	1.9703037e-04
0.00024589     	1.9844887e-04
0.000246295    	2.0000080e-04
0.0002467      	2.0134229e-04
0.000247105    	2.0287592e-04
0.00024751     	2.0449741e-04
0.000247915    	2.0594789e-04
0.00024832     	2.0764367e-04
0.000248725    	2.0932860e-04
0.00024913     	2.1090448e-04
0.000249535    	2.1271980e-04
0.00024994     	2.1449676e-04
0.000250345    	2.1616663e-04
0.00025075     	2.1812589e-04
0.000251155    	2.1990781e-04
0.00025156     	2.2175226e-04
0.000251965    	2.2371116e-04
0.000252369    	2.2567363e-04
0.000252774    	2.2760897e-04
0.000253179    	2.2970758e-04
0.000253584    	2.3172928e-04
0.000253989    	2.3349536e-04
0.000254394    	2.3564301e-04
0.000254799    	2.3737763e-04
0.000255204    	2.3914631e-04
0.000255609    	2.4119420e-04
0.000256014    	2.4287208e-04
0.000256419    	2.4467939e-04
0.000256824    	2.4653787e-04
0.000257229    	2.4790270e-04
0.000257634    	2.4941555e-04
0.000258039    	2.5100770e-04
0.000258444    	2.5190598e-04
0.000258849    	2.5357188e-04
0.000259254    	2.5484723e-04
0.000259659    	2.5560188e-04
0.000260064    	2.5712767e-04
0.000260469    	2.5745049e-04
0.000260874    	2.5819749e-04
0.000261279    	2.5912668e-04
0.000261684    	2.5909488e-04
0.000262089    	2.6015964e-04
0.000262494    	2.6047326e-04
0.000262899    	2.6059034e-04
0.000263304    	2.6115011e-04
0.000263709    	2.6086855e-04
0.000264114    	2.6093416e-04
0.000264519    	2.6094200e-04
0.000264924    	2.6056498e-04
0.000265329    	2.6047475e-04
0.000265734    	2.6049740e-04
0.000266139    	2.6007292e-04
0.000266544    	2.6002960e-04
0.000266949    	2.5973626e-04
0.000267354    	2.5898168e-04
0.000267759    	2.5895246e-04
0.000268164    	2.5807097e-04
0.000268569    	2.5782766e-04
0.000268974    	2.5767192e-04
0.000269379    	2.5715027e-04
0.000269784    	2.5697941e-04
0.000270189    	2.5657353e-04
0.000270594    	2.5612247e-04
0.000270998    	2.5552096e-04
0.000271403    	2.5561746e-04
0.000271808    	2.5482982e-04
0.000272213    	2.5514079e-04
0.000272618    	2.5511631e-04
0.000273023    	2.5454199e-04
0.000273428    	2.5501402e-04
0.000273833    	2.5441502e-04
0.000274238    	2.5464601e-04
0.000274643    	2.5484640e-04
0.000275048    	2.5522301e-04
0.000275453    	2.5535594e-04
0.000275858    	2.5589230e-04
0.000276263    	2.5633806e-04
0.000276668    	2.5605661e-04
0.000277073    	2.5766442e-04
0.000277478    	2.5767431e-04
0.000277883    	2.5862799e-04
0.000278288    	2.5974776e-04
0.000278693    	2.5985392e-04
0.000279098    	2.6102259e-04
0.000279503    	2.6186790e-04
0.000279908    	2.6315945e-04
0.000280313    	2.6383950e-04
0.000280718    	2.6563906e-04
0.000281123    	2.6602390e-04
0.000281528    	2.6711311e-04
0.000281933    	2.6898864e-04
0.000282338    	2.6919455e-04
0.000282743    	2.7145208e-04
0.000283148    	2.7207002e-04
0.000283553    	2.7323551e-04
0.000283958    	2.7440710e-04
0.000284363    	2.7555468e-04
0.000284768    	2.7685520e-04
0.000285173    	2.7761847e-04
0.000285578    	2.7939035e-04
0.000285983    	2.7924992e-04
0.000286388    	2.8094134e-04
0.000286793    	2.8147657e-04
0.000287198    	2.8227266e-04
0.000287603    	2.8351239e-04
0.000288008    	2.8330545e-04
0.000288413    	2.8477451e-04
0.000288818    	2.8413794e-04
0.000289223    	2.8509651e-04
0.000289627    	2.8518713e-04
0.000290032    	2.8502969e-04
0.000290437    	2.8599216e-04
0.000290842    	2.8506923e-04
0.000291247    	2.8562021e-04
0.000291652    	2.8528679e-04
0.000292057    	2.8473496e-04
0.000292462    	2.8421944e-04
0.000292867    	2.8371147e-04
0.000293272    	2.8399266e-04
0.000293677    	2.8226758e-04
0.000294082    	2.8314602e-04
0.000294487    	2.8192552e-04
0.000294892    	2.8021654e-04
0.000295297    	2.8114117e-04
0.000295702    	2.7895651e-04
0.000296107    	2.7901434e-04
0.000296512    	2.7870806e-04
0.000296917    	2.7735558e-04
0.000297322    	2.7745141e-04
0.000297727    	2.7582644e-04
0.000298132    	2.7620358e-04
0.000298537    	2.7510674e-04
0.000298942    	2.7445920e-04
0.000299347    	2.7474009e-04
0.000299752    	2.7368233e-04
0.000300157    	2.7391636e-04
0.000300562    	2.7344509e-04
0.000300967    	2.7365035e-04
0.000301372    	2.7297339e-04
0.000301777    	2.7295852e-04
0.000302182    	2.7384933e-04
0.000302587    	2.7249916e-04
0.000302992    	2.7447916e-04
0.000303397    	2.7437626e-04
0.000303802    	2.7407668e-04
0.000304207    	2.7557149e-04
0.000304612    	2.7518858e-04
0.000305017    	2.7623508e-04
0.000305422    	2.7681554e-04
0.000305827    	2.7794961e-04
0.000306232    	2.7873751e-04
0.000306637    	2.7943113e-04
0.000307042    	2.8135273e-04
0.000307447    	2.8107078e-04
0.000307852    	2.8298003e-04
0.000308258    	2.8391397e-04
0.000308663    	2.8452490e-04
0.000309068    	2.8589052e-04
0.000309473    	2.8658322e-04
0.000309878    	2.8873113e-04
0.000310283    	2.8871192e-04
0.000310688    	2.9068888e-04
0.000311093    	2.9159553e-04
0.000311498    	2.9122903e-04
0.000311903    	2.9390290e-04
0.000312308    	2.9339890e-04
0.000312713    	2.9450378e-04
0.000313118    	2.9610339e-04
0.000313523    	2.9620117e-04
0.000313928    	2.9653943e-04
0.000314333    	2.9716070e-04
0.000314738    	2.9812728e-04
0.000315143    	2.9682398e-04
0.000315548    	2.9892532e-04
0.000315953    	2.9827459e-04
0.000316358    	2.9800751e-04
0.000316763    	2.9913515e-04
0.000317168    	2.9741826e-04
0.000317573    	2.9829368e-04
0.000317978    	2.9726926e-04
0.000318383    	2.9731444e-04
0.000318788    	2.9661388e-04
0.000319193    	2.9636667e-04
0.000319598    	2.9592917e-04
0.000320003    	2.9457195e-04
0.000320408    	2.9504167e-04
0.000320813    	2.9273332e-04
0.000321218    	2.9316404e-04
0.000321623    	2.9172239e-04
0.000322028    	2.9116847e-04
0.000322433    	2.9056153e-04
0.000322838    	2.8931830e-04
0.000323243    	2.8927565e-04
0.000323648    	2.8746404e-04
0.000324053    	2.8796282e-04
0.000324458    	2.8579072e-04
0.000324863    	2.8632307e-04
0.000325268    	2.8530711e-04
0.000325673    	2.8449324e-04
0.000326078    	2.8463074e-04
0.000326483    	2.8366590e-04
0.000326888    	2.8370021e-04
0.000327293    	2.8263274e-04
0.000327698    	2.8376631e-04
0.000328103    	2.8200043e-04
0.000328508    	2.8325928e-04
0.000328913    	2.8311737e-04
0.000329318    	2.8273475e-04
0.000329723    	2.8380552e-04
0.000330128    	2.8354894e-04
0.000330533    	2.8431821e-04
0.000330938    	2.8417949e-04
0.000331343    	2.8570316e-04
0.000331748    	2.8484134e-04
0.000332153    	2.8733374e-04
0.000332558    	2.8694151e-04
0.000332963    	2.8773342e-04
0.000333368    	2.8946627e-04
0.000333773    	2.8909824e-04
0.000334178    	2.9062157e-04
0.000334583    	2.9131895e-04
0.000334988    	2.9235227e-04
0.000335393    	2.9246115e-04
0.000335798    	2.9510978e-04
0.000336203    	2.9383464e-04
0.000336608    	2.9669532e-04
0.000337013    	2.9685775e-04
0.000337418    	2.9753901e-04
0.000337823    	2.9914372e-04
0.000338228    	2.9942198e-04
0.000338633    	3.0022610e-04
0.000339038    	3.0113451e-04
0.000339443    	3.0224615e-04
0.000339848    	3.0162852e-04
0.000340253    	3.0418669e-04
0.000340658    	3.0286065e-04
0.000341063    	3.0453140e-04
0.000341468    	3.0462045e-04
0.000341873    	3.0518127e-04
0.000342278    	3.0499715e-04
0.000342683    	3.0695857e-04
0.000343088    	3.0513006e-04
0.000343493    	3.0702373e-04
0.000343898    	3.0695772e-04
0.000344303    	3.0588550e-04
0.000344708    	3.0770493e-04
0.000345113    	3.0667023e-04
0.000345518    	3.0667225e-04
0.000345923    	3.0748975e-04
0.000346328    	3.0702054e-04
0.000346733    	3.0636063e-04
0.000347138    	3.0817545e-04
0.000347543    	3.0594466e-04
0.000347948    	3.0756350e-04
0.000348353    	3.0680923e-04
0.000348758    	3.0695581e-04
0.000349163    	3.0665489e-04
0.000349568    	3.0819551e-04
0.000349973    	3.0586584e-04
0.000350378    	3.0869087e-04
0.000350783    	3.0724101e-04
0.000351188    	3.0796429e-04
0.000351593    	3.0880470e-04
0.000351998    	3.0908409e-04
0.000352403    	3.0869848e-04
0.000352808    	3.1132828e-04
0.000353213    	3.0978439e-04
0.000353618    	3.1206440e-04
0.000354023    	3.1288788e-04
0.000354428    	3.1300954e-04
0.000354833    	3.1513038e-04
0.000355238    	3.1615651e-04
0.000355643    	3.1673688e-04
0.000356048    	3.1954038e-04
0.000356453    	3.2012994e-04
0.000356858    	3.2187431e-04
0.000357263    	3.2462514e-04
0.000357668    	3.2534896e-04
0.000358073    	3.2808323e-04
0.000358478    	3.3055602e-04
0.000358883    	3.3214064e-04
0.000359288    	3.3512149e-04
0.000359693    	3.3790768e-04
0.000360098    	3.3970527e-04
0.000360503    	3.4351873e-04
0.000360908    	3.4587286e-04
0.000361313    	3.4873109e-04
0.000361718    	3.5290411e-04
0.000362123    	3.5487404e-04
0.000362528    	3.5901851e-04
0.000362933    	3.6244840e-04
0.000363338    	3.6544744e-04
0.000363743    	3.6963914e-04
0.000364148    	3.7314630e-04
0.000364553    	3.7617814e-04
0.000364958    	3.8194251e-04
0.000365363    	3.8322169e-04
0.000365768    	3.8999857e-04
0.000366173    	3.9214996e-04
0.000366578    	3.9685842e-04
0.000366983    	4.0137024e-04
0.000367388    	4.0506344e-04
0.000367793    	4.0947730e-04
0.000368198    	4.1416921e-04
0.000368603    	4.1738102e-04
0.000369008    	4.2260634e-04
0.000369413    	4.2616410e-04
0.000369818    	4.3004888e-04
0.000370223    	4.3565554e-04
0.000370628    	4.3792346e-04
0.000371033    	4.4381579e-04
0.000371438    	4.4689930e-04
0.000371843    	4.5120835e-04
0.000372248    	4.5542368e-04
0.000372653    	4.5871194e-04
0.000373058    	4.6318362e-04
0.000373463    	4.6640454e-04
0.000373868    	4.7048921e-04
0.000374273    	4.7352834e-04
0.000374678    	4.7805809e-04
0.000375083    	4.8017269e-04
0.000375488    	4.8493353e-04
0.000375893    	4.8669596e-04
0.000376298    	4.8981703e-04
0.000376703    	4.9372487e-04
0.000377108    	4.9457029e-04
0.000377513    	4.9968527e-04
0.000377918    	4.9994617e-04
0.000378323    	5.0354508e-04
0.000378728    	5.0551855e-04
0.000379133    	5.0590013e-04
0.000379538    	5.1027027e-04
0.000379943    	5.0927194e-04
0.000380348    	5.1266813e-04
0.000380753    	5.1321520e-04
0.000381158    	5.1329016e-04
0.000381563    	5.1636747e-04
0.000381968    	5.1449445e-04
0.000382373    	5.1714728e-04
0.000382778    	5.1620806e-04
0.000383183    	5.1585233e-04
0.000383588    	5.1736627e-04
0.000383993    	5.1494578e-04
0.000384398    	5.1633586e-04
0.000384803    	5.1446172e-04
0.000385208    	5.1319238e-04
0.000385613    	5.1337035e-04
0.000386018    	5.1036347e-04
0.000386423    	5.1036700e-04
0.000386828    	5.0747210e-04
0.000387233    	5.0494188e-04
0.000387638    	5.0392652e-04
0.000388043    	4.9988777e-04
0.000388448    	4.9849634e-04
0.000388853    	4.9453630e-04
0.000389258    	4.9074044e-04
0.000389663    	4.8861173e-04
0.000390068    	4.8324381e-04
0.000390473    	4.8026092e-04
0.000390878    	4.7519190e-04
0.000391283    	4.6989265e-04
0.000391688    	4.6646606e-04
0.000392093    	4.5959128e-04
0.000392498    	4.5525010e-04
0.000392903    	4.4878788e-04
0.000393308    	4.4244600e-04
0.000393713    	4.3729694e-04
0.000394118    	4.2926650e-04
0.000394523    	4.2325022e-04
0.000394928    	4.1541263e-04
0.000395333    	4.0761684e-04
0.000395738    	4.0101212e-04