# Region type : patch inlet
# Faces  :     292
# Area   :     1.5721142e-05
# Time         	sum(phi)
0              	0.0000000e+00
4.84042e-07    	-4.9783979e-04
8.88508e-07    	-5.1220585e-04
1.29297e-06    	-5.2005110e-04
1.69744e-06    	-5.0596650e-04
2.10191e-06    	-4.8938218e-04
2.50637e-06    	-4.7577554e-04
2.91084e-06    	-4.6894406e-04
3.3153e-06     	-4.6485688e-04
3.71977e-06    	-4.6227525e-04
4.12423e-06    	-4.6275318e-04
4.5287e-06     	-4.6312863e-04
4.93315e-06    	-4.6382073e-04
5.33759e-06    	-4.6601747e-04
5.74206e-06    	-4.7053813e-04
6.14653e-06    	-4.7663515e-04
6.55104e-06    	-4.8673529e-04
6.95558e-06    	-5.0002141e-04
7.36028e-06    	-5.1527467e-04
7.76497e-06    	-5.3399329e-04
8.16964e-06    	-5.5297266e-04
8.57432e-06    	-5.7356163e-04
8.979e-06      	-5.9531626e-04
9.38367e-06    	-6.1711078e-04
9.78834e-06    	-6.4018991e-04
1.0193e-05     	-6.6193993e-04
1.05977e-05    	-6.8362948e-04
1.10023e-05    	-7.0389301e-04
1.1407e-05     	-7.2330020e-04
1.18117e-05    	-7.4141401e-04
1.22164e-05    	-7.5807269e-04
1.26212e-05    	-7.7327834e-04
1.30259e-05    	-7.8694977e-04
1.34308e-05    	-7.9923428e-04
1.38357e-05    	-8.1024916e-04
1.42406e-05    	-8.2030149e-04
1.46455e-05    	-8.2963464e-04
1.50504e-05    	-8.3846378e-04
1.54554e-05    	-8.4713969e-04
1.58603e-05    	-8.5582015e-04
1.62652e-05    	-8.6458986e-04
1.667e-05      	-8.7359039e-04
1.70749e-05    	-8.8288402e-04
1.74798e-05    	-8.9248780e-04
1.78846e-05    	-9.0237629e-04
1.82895e-05    	-9.1249811e-04
1.86944e-05    	-9.2277448e-04
1.90992e-05    	-9.3311193e-04
1.9504e-05     	-9.4341508e-04
1.99089e-05    	-9.5359739e-04
2.03138e-05    	-9.6361663e-04
2.07188e-05    	-9.7345251e-04
2.11238e-05    	-9.8308639e-04
2.15287e-05    	-9.9254699e-04
2.19337e-05    	-1.0018733e-03
2.23387e-05    	-1.0111305e-03
2.27436e-05    	-1.0203785e-03
2.31486e-05    	-1.0297109e-03
2.35535e-05    	-1.0391749e-03
2.39585e-05    	-1.0488670e-03
2.43634e-05    	-1.0587640e-03
2.47684e-05    	-1.0689004e-03
2.51733e-05    	-1.0792497e-03
2.55783e-05    	-1.0897690e-03
2.59832e-05    	-1.1003668e-03
2.63881e-05    	-1.1110115e-03
2.6793e-05     	-1.1216075e-03
2.71979e-05    	-1.1320643e-03
2.76029e-05    	-1.1422895e-03
2.80079e-05    	-1.1521811e-03
2.84129e-05    	-1.1616762e-03
2.88179e-05    	-1.1706977e-03
2.92229e-05    	-1.1791600e-03
2.96279e-05    	-1.1870199e-03
3.0033e-05     	-1.1942951e-03
3.0438e-05     	-1.2010071e-03
3.0843e-05     	-1.2071912e-03
3.1248e-05     	-1.2129228e-03
3.1653e-05     	-1.2182975e-03
3.20581e-05    	-1.2234332e-03
3.24631e-05    	-1.2284976e-03
3.28682e-05    	-1.2336746e-03
3.32733e-05    	-1.2391514e-03
3.36783e-05    	-1.2450803e-03
3.40834e-05    	-1.2515767e-03
3.44885e-05    	-1.2587018e-03
3.48935e-05    	-1.2664259e-03
3.52986e-05    	-1.2746115e-03
3.57037e-05    	-1.2829545e-03
3.61088e-05    	-1.2909260e-03
3.65139e-05    	-1.2977833e-03
3.6919e-05     	-1.3027545e-03
3.73241e-05    	-1.3053618e-03
3.77292e-05    	-1.3050550e-03
3.81343e-05    	-1.3015413e-03
3.85394e-05    	-1.2948776e-03
3.89445e-05    	-1.2854976e-03
3.93496e-05    	-1.2741059e-03
3.97547e-05    	-1.2614982e-03
4.01598e-05    	-1.2486283e-03
4.05649e-05    	-1.2364409e-03
4.097e-05      	-1.2257646e-03
4.13751e-05    	-1.2171897e-03
4.17802e-05    	-1.2112418e-03
4.21853e-05    	-1.2082147e-03
4.25904e-05    	-1.2079083e-03
4.29955e-05    	-1.2099553e-03
4.34006e-05    	-1.2142734e-03
4.38057e-05    	-1.2204871e-03
4.42108e-05    	-1.2280963e-03
4.46159e-05    	-1.2364373e-03
4.5021e-05     	-1.2447048e-03
4.54261e-05    	-1.2521148e-03
4.58312e-05    	-1.2580663e-03
4.62363e-05    	-1.2623375e-03
4.66415e-05    	-1.2647900e-03
4.70466e-05    	-1.2653852e-03
4.74517e-05    	-1.2640861e-03
4.78568e-05    	-1.2611106e-03
4.82619e-05    	-1.2568841e-03
4.8667e-05     	-1.2519458e-03
4.90721e-05    	-1.2468869e-03
4.94772e-05    	-1.2422880e-03
4.98823e-05    	-1.2387096e-03
5.02874e-05    	-1.2365246e-03
5.06925e-05    	-1.2359501e-03
5.10977e-05    	-1.2370568e-03
5.15028e-05    	-1.2398915e-03
5.19079e-05    	-1.2443035e-03
5.2313e-05     	-1.2500393e-03
5.27181e-05    	-1.2567798e-03
5.31232e-05    	-1.2641540e-03
5.35284e-05    	-1.2717868e-03
5.39335e-05    	-1.2793080e-03
5.43386e-05    	-1.2863803e-03
5.47437e-05    	-1.2927803e-03
5.51488e-05    	-1.2983453e-03
5.55539e-05    	-1.3030038e-03
5.59591e-05    	-1.3067580e-03
5.63642e-05    	-1.3096520e-03
5.67693e-05    	-1.3117336e-03
5.71744e-05    	-1.3130847e-03
5.75795e-05    	-1.3137933e-03
5.79846e-05    	-1.3139613e-03
5.83898e-05    	-1.3136390e-03
5.87949e-05    	-1.3129369e-03
5.92e-05       	-1.3119892e-03
5.96051e-05    	-1.3109220e-03
6.00102e-05    	-1.3099080e-03
6.04153e-05    	-1.3091053e-03
6.08204e-05    	-1.3086822e-03
6.12256e-05    	-1.3088056e-03
6.16307e-05    	-1.3096145e-03
6.20358e-05    	-1.3111621e-03
6.24409e-05    	-1.3135030e-03
6.2846e-05     	-1.3166126e-03
6.32511e-05    	-1.3204179e-03
6.36563e-05    	-1.3248126e-03
6.40614e-05    	-1.3296425e-03
6.44665e-05    	-1.3347185e-03
6.48716e-05    	-1.3398330e-03
6.52767e-05    	-1.3447641e-03
6.56819e-05    	-1.3492842e-03
6.6087e-05     	-1.3532203e-03
6.64921e-05    	-1.3564388e-03
6.68972e-05    	-1.3588488e-03
6.73024e-05    	-1.3604213e-03
6.77075e-05    	-1.3611515e-03
6.81126e-05    	-1.3610920e-03
6.85178e-05    	-1.3603086e-03
6.89229e-05    	-1.3588498e-03
6.9328e-05     	-1.3567533e-03
6.97332e-05    	-1.3540450e-03
7.01383e-05    	-1.3507591e-03
7.05434e-05    	-1.3469124e-03
7.09486e-05    	-1.3425411e-03
7.13537e-05    	-1.3377112e-03
7.17588e-05    	-1.3325435e-03
7.2164e-05     	-1.3271992e-03
7.25691e-05    	-1.3218531e-03
7.29742e-05    	-1.3166859e-03
7.33794e-05    	-1.3118522e-03
7.37845e-05    	-1.3074763e-03
7.41897e-05    	-1.3036477e-03
7.45948e-05    	-1.3003914e-03
7.5e-05        	-1.2977424e-03
7.54051e-05    	-1.2957334e-03
7.58103e-05    	-1.2943701e-03
7.62154e-05    	-1.2936503e-03
7.66206e-05    	-1.2935963e-03
7.70257e-05    	-1.2942134e-03
7.74309e-05    	-1.2955037e-03
7.7836e-05     	-1.2974354e-03
7.82412e-05    	-1.3000119e-03
7.86463e-05    	-1.3032111e-03
7.90515e-05    	-1.3069854e-03
7.94566e-05    	-1.3112589e-03
7.98618e-05    	-1.3159301e-03
8.02669e-05    	-1.3208410e-03
8.0672e-05     	-1.3257984e-03
8.10772e-05    	-1.3305919e-03
8.14823e-05    	-1.3350162e-03
8.18874e-05    	-1.3388758e-03
8.22926e-05    	-1.3420083e-03
8.26977e-05    	-1.3442907e-03
8.31028e-05    	-1.3456285e-03
8.3508e-05     	-1.3460025e-03
8.39131e-05    	-1.3454952e-03
8.43182e-05    	-1.3442947e-03
8.47234e-05    	-1.3426444e-03
8.51285e-05    	-1.3407958e-03
8.55336e-05    	-1.3389922e-03
8.59388e-05    	-1.3374719e-03
8.63439e-05    	-1.3364364e-03
8.6749e-05     	-1.3360050e-03
8.71542e-05    	-1.3362170e-03
8.75593e-05    	-1.3370371e-03
8.79644e-05    	-1.3383706e-03
8.83696e-05    	-1.3400692e-03
8.87747e-05    	-1.3419497e-03
8.91798e-05    	-1.3438287e-03
8.9585e-05     	-1.3455243e-03
8.99901e-05    	-1.3468950e-03
9.03952e-05    	-1.3478194e-03
9.08004e-05    	-1.3482341e-03
9.12055e-05    	-1.3481138e-03
9.16106e-05    	-1.3474896e-03
9.20158e-05    	-1.3464422e-03
9.24209e-05    	-1.3450922e-03
9.2826e-05     	-1.3436010e-03
9.32312e-05    	-1.3421384e-03
9.36363e-05    	-1.3408754e-03
9.40414e-05    	-1.3399461e-03
9.44466e-05    	-1.3394507e-03
9.48517e-05    	-1.3394733e-03
9.52568e-05    	-1.3400421e-03
9.5662e-05     	-1.3411643e-03
9.60671e-05    	-1.3428025e-03
9.64722e-05    	-1.3448947e-03
9.68774e-05    	-1.3473734e-03
9.72825e-05    	-1.3501673e-03
9.76877e-05    	-1.3531932e-03
9.80928e-05    	-1.3563829e-03
9.8498e-05     	-1.3596879e-03
9.89031e-05    	-1.3630548e-03
9.93083e-05    	-1.3664255e-03
9.97134e-05    	-1.3697369e-03
0.000100119    	-1.3729298e-03
0.000100524    	-1.3759306e-03
0.000100929    	-1.3786484e-03
0.000101334    	-1.3809837e-03
0.000101739    	-1.3828389e-03
0.000102144    	-1.3841269e-03
0.000102549    	-1.3847176e-03
0.000102955    	-1.3845178e-03
0.00010336     	-1.3834665e-03
0.000103765    	-1.3814875e-03
0.00010417     	-1.3785092e-03
0.000104575    	-1.3745413e-03
0.00010498     	-1.3696658e-03
0.000105385    	-1.3640651e-03
0.000105791    	-1.3580049e-03
0.000106196    	-1.3517743e-03
0.000106601    	-1.3456943e-03
0.000107006    	-1.3400504e-03
0.000107411    	-1.3350876e-03
0.000107816    	-1.3310307e-03
0.000108222    	-1.3280908e-03
0.000108627    	-1.3262955e-03
0.000109032    	-1.3256804e-03
0.000109437    	-1.3262299e-03
0.000109842    	-1.3279081e-03
0.000110247    	-1.3305992e-03
0.000110652    	-1.3341323e-03
0.000111058    	-1.3383150e-03
0.000111463    	-1.3429143e-03
0.000111868    	-1.3477101e-03
0.000112273    	-1.3524750e-03
0.000112678    	-1.3569938e-03
0.000113083    	-1.3610973e-03
0.000113488    	-1.3646403e-03
0.000113894    	-1.3675147e-03
0.000114299    	-1.3696377e-03
0.000114704    	-1.3710046e-03
0.000115109    	-1.3716122e-03
0.000115514    	-1.3714803e-03
0.000115919    	-1.3706958e-03
0.000116325    	-1.3693490e-03
0.00011673     	-1.3675207e-03
0.000117135    	-1.3653391e-03
0.00011754     	-1.3629309e-03
0.000117945    	-1.3604228e-03
0.00011835     	-1.3579566e-03
0.000118755    	-1.3556626e-03
0.000119161    	-1.3536543e-03
0.000119566    	-1.3520396e-03
0.000119971    	-1.3508911e-03
0.000120376    	-1.3502800e-03
0.000120781    	-1.3502619e-03
0.000121186    	-1.3508813e-03
0.000121591    	-1.3521310e-03
0.000121997    	-1.3539980e-03
0.000122402    	-1.3564371e-03
0.000122807    	-1.3593773e-03
0.000123212    	-1.3627104e-03
0.000123617    	-1.3663104e-03
0.000124022    	-1.3700403e-03
0.000124428    	-1.3737612e-03
0.000124833    	-1.3773357e-03
0.000125238    	-1.3806418e-03
0.000125643    	-1.3835727e-03
0.000126048    	-1.3860329e-03
0.000126453    	-1.3879682e-03
0.000126858    	-1.3893182e-03
0.000127264    	-1.3900634e-03
0.000127669    	-1.3902180e-03
0.000128074    	-1.3898248e-03
0.000128479    	-1.3889662e-03
0.000128884    	-1.3877360e-03
0.000129289    	-1.3862436e-03
0.000129695    	-1.3846196e-03
0.0001301      	-1.3829918e-03
0.000130505    	-1.3814812e-03
0.00013091     	-1.3801829e-03
0.000131315    	-1.3791902e-03
0.00013172     	-1.3785583e-03
0.000132125    	-1.3783190e-03
0.000132531    	-1.3784826e-03
0.000132936    	-1.3790325e-03
0.000133341    	-1.3799096e-03
0.000133746    	-1.3810328e-03
0.000134151    	-1.3823236e-03
0.000134556    	-1.3836973e-03
0.000134961    	-1.3850476e-03
0.000135367    	-1.3862563e-03
0.000135772    	-1.3872208e-03
0.000136177    	-1.3878511e-03
0.000136582    	-1.3880697e-03
0.000136987    	-1.3877900e-03
0.000137392    	-1.3869820e-03
0.000137798    	-1.3856634e-03
0.000138203    	-1.3838442e-03
0.000138608    	-1.3815918e-03
0.000139013    	-1.3790157e-03
0.000139418    	-1.3762411e-03
0.000139823    	-1.3734044e-03
0.000140228    	-1.3706488e-03
0.000140634    	-1.3681214e-03
0.000141039    	-1.3659512e-03
0.000141444    	-1.3642407e-03
0.000141849    	-1.3630679e-03
0.000142254    	-1.3624880e-03
0.000142659    	-1.3625054e-03
0.000143065    	-1.3631261e-03
0.00014347     	-1.3643313e-03
0.000143875    	-1.3660491e-03
0.00014428     	-1.3681965e-03
0.000144685    	-1.3706786e-03
0.00014509     	-1.3733946e-03
0.000145495    	-1.3762363e-03
0.000145901    	-1.3790896e-03
0.000146306    	-1.3818478e-03
0.000146711    	-1.3844328e-03
0.000147116    	-1.3867705e-03
0.000147521    	-1.3887855e-03
0.000147926    	-1.3904181e-03
0.000148331    	-1.3916468e-03
0.000148737    	-1.3924584e-03
0.000149142    	-1.3928380e-03
0.000149547    	-1.3928088e-03
0.000149952    	-1.3924254e-03
0.000150357    	-1.3917442e-03
0.000150762    	-1.3908288e-03
0.000151168    	-1.3897576e-03
0.000151573    	-1.3886158e-03
0.000151978    	-1.3874850e-03
0.000152383    	-1.3864470e-03
0.000152788    	-1.3855789e-03
0.000153193    	-1.3849453e-03
0.000153598    	-1.3845965e-03
0.000154004    	-1.3845604e-03
0.000154409    	-1.3848563e-03
0.000154814    	-1.3854862e-03
0.000155219    	-1.3864327e-03
0.000155624    	-1.3876553e-03
0.000156029    	-1.3891043e-03
0.000156434    	-1.3907158e-03
0.00015684     	-1.3924141e-03
0.000157245    	-1.3941318e-03
0.00015765     	-1.3958117e-03
0.000158055    	-1.3973860e-03
0.00015846     	-1.3987988e-03
0.000158865    	-1.4000205e-03
0.00015927     	-1.4010336e-03
0.000159675    	-1.4018145e-03
0.000160081    	-1.4023684e-03
0.000160486    	-1.4027091e-03
0.000160891    	-1.4028732e-03
0.000161296    	-1.4028946e-03
0.000161701    	-1.4028189e-03
0.000162106    	-1.4026987e-03
0.000162511    	-1.4025880e-03
0.000162917    	-1.4025393e-03
0.000163322    	-1.4025946e-03
0.000163727    	-1.4027946e-03
0.000164132    	-1.4031715e-03
0.000164537    	-1.4037439e-03
0.000164942    	-1.4045147e-03
0.000165347    	-1.4054736e-03
0.000165752    	-1.4065980e-03
0.000166158    	-1.4078411e-03
0.000166563    	-1.4091397e-03
0.000166968    	-1.4104205e-03
0.000167373    	-1.4116059e-03
0.000167778    	-1.4125992e-03
0.000168183    	-1.4133214e-03
0.000168588    	-1.4136981e-03
0.000168993    	-1.4136574e-03
0.000169399    	-1.4131414e-03
0.000169804    	-1.4121161e-03
0.000170209    	-1.4105558e-03
0.000170614    	-1.4084523e-03
0.000171019    	-1.4058339e-03
0.000171424    	-1.4027738e-03
0.000171829    	-1.3993818e-03
0.000172235    	-1.3957916e-03
0.00017264     	-1.3921609e-03
0.000173045    	-1.3886455e-03
0.00017345     	-1.3853912e-03
0.000173855    	-1.3825321e-03
0.00017426     	-1.3801777e-03
0.000174665    	-1.3783789e-03
0.00017507     	-1.3771720e-03
0.000175476    	-1.3765613e-03
0.000175881    	-1.3765355e-03
0.000176286    	-1.3770248e-03
0.000176691    	-1.3779368e-03
0.000177096    	-1.3791600e-03
0.000177501    	-1.3805715e-03
0.000177906    	-1.3820303e-03
0.000178312    	-1.3833980e-03
0.000178717    	-1.3845472e-03
0.000179122    	-1.3853796e-03
0.000179527    	-1.3858197e-03
0.000179932    	-1.3858117e-03
0.000180337    	-1.3853281e-03
0.000180742    	-1.3843374e-03
0.000181147    	-1.3828130e-03
0.000181553    	-1.3807501e-03
0.000181958    	-1.3781669e-03
0.000182363    	-1.3750922e-03
0.000182768    	-1.3715696e-03
0.000183173    	-1.3676589e-03
0.000183578    	-1.3634206e-03
0.000183983    	-1.3588994e-03
0.000184388    	-1.3541530e-03
0.000184794    	-1.3492256e-03
0.000185199    	-1.3441459e-03
0.000185604    	-1.3389341e-03
0.000186009    	-1.3335951e-03
0.000186414    	-1.3281172e-03
0.000186819    	-1.3224798e-03
0.000187224    	-1.3166581e-03
0.000187629    	-1.3106151e-03
0.000188035    	-1.3042961e-03
0.00018844     	-1.2976566e-03
0.000188845    	-1.2906434e-03
0.00018925     	-1.2831976e-03
0.000189655    	-1.2752556e-03
0.00019006     	-1.2667617e-03
0.000190465    	-1.2576678e-03
0.000190871    	-1.2479223e-03
0.000191276    	-1.2374657e-03
0.000191681    	-1.2262670e-03
0.000192086    	-1.2142775e-03
0.000192491    	-1.2014482e-03
0.000192896    	-1.1877629e-03
0.000193301    	-1.1732293e-03
0.000193706    	-1.1578496e-03
0.000194112    	-1.1416557e-03
0.000194517    	-1.1246685e-03
0.000194922    	-1.1069204e-03
0.000195327    	-1.0884832e-03
0.000195732    	-1.0694242e-03
0.000196137    	-1.0498112e-03
0.000196542    	-1.0297230e-03
0.000196948    	-1.0092306e-03
0.000197353    	-9.8838020e-04
0.000197758    	-9.6720956e-04
0.000198163    	-9.4576090e-04
0.000198568    	-9.2404862e-04
0.000198973    	-9.0208500e-04
0.000199378    	-8.7987011e-04
0.000199783    	-8.5738217e-04
0.000200189    	-8.3458352e-04
0.000200594    	-8.1142945e-04
0.000200999    	-7.8790006e-04
0.000201404    	-7.6400318e-04
0.000201809    	-7.3967576e-04
0.000202214    	-7.1489881e-04
0.000202619    	-6.8965842e-04
0.000203024    	-6.6397823e-04
0.00020343     	-6.3797737e-04
0.000203835    	-6.1173587e-04
0.00020424     	-5.8533349e-04
0.000204645    	-5.5886527e-04
0.00020505     	-5.3254618e-04
0.000205455    	-5.0656924e-04
0.00020586     	-4.8099814e-04
0.000206266    	-4.5603744e-04
0.000206671    	-4.3179280e-04
0.000207076    	-4.0847199e-04
0.000207481    	-3.8614339e-04
0.000207886    	-3.6487650e-04
0.000208291    	-3.4464701e-04
0.000208696    	-3.2548819e-04
0.000209101    	-3.0731170e-04
0.000209506    	-2.8997065e-04
0.000209912    	-2.7330409e-04
0.000210317    	-2.5716371e-04
0.000210722    	-2.4145833e-04
0.000211127    	-2.2590794e-04
0.000211532    	-2.1039145e-04
0.000211937    	-1.9482304e-04
0.000212342    	-1.7889174e-04
0.000212748    	-1.6276673e-04
0.000213153    	-1.4627291e-04
0.000213558    	-1.2944013e-04
0.000213963    	-1.1243963e-04
0.000214368    	-9.5199067e-05
0.000214773    	-7.7915127e-05
0.000215178    	-6.0804861e-05
0.000215583    	-4.4008953e-05
0.000215989    	-2.7635501e-05
0.000216394    	-1.1943578e-05
0.000216799    	3.1203252e-06
0.000217204    	1.7262974e-05
0.000217609    	3.0466297e-05
0.000218014    	4.2699984e-05
0.000218419    	5.3963949e-05
0.000218824    	6.4270369e-05
0.00021923     	7.3562271e-05
0.000219635    	8.2202465e-05
0.00022004     	9.0057368e-05
0.000220445    	9.7010602e-05
0.00022085     	1.0380535e-04
0.000221255    	1.1016925e-04
0.00022166     	1.1593962e-04
0.000222066    	1.2154170e-04
0.000222471    	1.2716940e-04
0.000222876    	1.3251430e-04
0.000223281    	1.3774081e-04
0.000223686    	1.4294277e-04
0.000224091    	1.4812012e-04
0.000224496    	1.5325494e-04
0.000224901    	1.5830900e-04
0.000225307    	1.6326308e-04
0.000225712    	1.6814877e-04
0.000226117    	1.7292063e-04
0.000226522    	1.7757770e-04
0.000226927    	1.8213814e-04
0.000227332    	1.8656379e-04
0.000227737    	1.9083875e-04
0.000228143    	1.9495514e-04
0.000228548    	1.9892528e-04
0.000228953    	2.0281837e-04
0.000229358    	2.0659549e-04
0.000229763    	2.1020892e-04
0.000230168    	2.1378435e-04
0.000230573    	2.1734863e-04
0.000230978    	2.2072726e-04
0.000231383    	2.2408285e-04
0.000231789    	2.2748414e-04
0.000232194    	2.3073704e-04
0.000232599    	2.3395863e-04
0.000233004    	2.3726969e-04
0.000233409    	2.4047776e-04
0.000233814    	2.4357711e-04
0.000234219    	2.4686419e-04
0.000234624    	2.5000979e-04
0.000235029    	2.5303763e-04
0.000235435    	2.5631989e-04
0.00023584     	2.5938642e-04
0.000236245    	2.6230989e-04
0.00023665     	2.6548844e-04
0.000237055    	2.6833785e-04
0.00023746     	2.7104395e-04
0.000237865    	2.7392878e-04
0.00023827     	2.7626579e-04
0.000238675    	2.7854837e-04
0.000239081    	2.8077054e-04
0.000239486    	2.8225190e-04
0.000239891    	2.8391129e-04
0.000240296    	2.8522884e-04
0.000240701    	2.8564373e-04
0.000241106    	2.8623775e-04
0.000241511    	2.8620300e-04
0.000241916    	2.8568013e-04
0.000242321    	2.8561363e-04
0.000242727    	2.8459512e-04
0.000243132    	2.8384837e-04
0.000243537    	2.8300653e-04
0.000243942    	2.8165538e-04
0.000244347    	2.8103734e-04
0.000244752    	2.8008487e-04
0.000245157    	2.7926952e-04
0.000245562    	2.7927094e-04
0.000245967    	2.7896220e-04
0.000246373    	2.7965555e-04
0.000246778    	2.8070996e-04
0.000247183    	2.8185241e-04
0.000247588    	2.8411946e-04
0.000247993    	2.8572404e-04
0.000248398    	2.8833202e-04
0.000248803    	2.9138137e-04
0.000249208    	2.9407849e-04
0.000249613    	2.9753775e-04
0.000250019    	3.0013552e-04
0.000250424    	3.0331008e-04
0.000250829    	3.0679562e-04
0.000251234    	3.0921422e-04
0.000251639    	3.1222901e-04
0.000252044    	3.1453192e-04
0.000252449    	3.1704043e-04
0.000252854    	3.1976955e-04
0.000253259    	3.2133722e-04
0.000253665    	3.2354473e-04
0.00025407     	3.2524553e-04
0.000254475    	3.2706821e-04
0.00025488     	3.2951151e-04
0.000255285    	3.3093882e-04
0.00025569     	3.3320407e-04
0.000256095    	3.3490253e-04
0.0002565      	3.3665590e-04
0.000256905    	3.3945243e-04
0.000257311    	3.4110715e-04
0.000257716    	3.4403549e-04
0.000258121    	3.4564746e-04
0.000258526    	3.4770333e-04
0.000258931    	3.4969313e-04
0.000259336    	3.5098634e-04
0.000259741    	3.5330867e-04
0.000260146    	3.5415183e-04
0.000260551    	3.5557473e-04
0.000260957    	3.5607996e-04
0.000261362    	3.5642724e-04
0.000261767    	3.5668005e-04
0.000262172    	3.5635969e-04
0.000262577    	3.5596740e-04
0.000262982    	3.5542961e-04
0.000263387    	3.5450441e-04
0.000263792    	3.5330138e-04
0.000264197    	3.5235135e-04
0.000264603    	3.5108646e-04
0.000265008    	3.4969041e-04
0.000265413    	3.4867429e-04
0.000265818    	3.4765310e-04
0.000266223    	3.4603162e-04
0.000266628    	3.4580624e-04
0.000267033    	3.4410097e-04
0.000267438    	3.4354759e-04
0.000267843    	3.4321344e-04
0.000268249    	3.4174423e-04
0.000268654    	3.4190331e-04
0.000269059    	3.4080838e-04
0.000269464    	3.4036313e-04
0.000269869    	3.3964292e-04
0.000270274    	3.3917736e-04
0.000270679    	3.3808342e-04
0.000271084    	3.3768961e-04
0.000271489    	3.3701233e-04
0.000271895    	3.3551176e-04
0.0002723      	3.3586902e-04
0.000272705    	3.3344396e-04
0.00027311     	3.3308766e-04
0.000273515    	3.3147080e-04
0.00027392     	3.2978402e-04
0.000274325    	3.2903457e-04
0.00027473     	3.2664751e-04
0.000275135    	3.2607827e-04
0.000275541    	3.2377542e-04
0.000275946    	3.2301898e-04
0.000276351    	3.2132486e-04
0.000276756    	3.2050429e-04
0.000277161    	3.2008787e-04
0.000277566    	3.1896510e-04
0.000277971    	3.1948159e-04
0.000278376    	3.1916341e-04
0.000278781    	3.1992560e-04
0.000279187    	3.2099465e-04
0.000279592    	3.2188553e-04
0.000279997    	3.2392902e-04
0.000280402    	3.2606062e-04
0.000280807    	3.2800526e-04
0.000281212    	3.3119374e-04
0.000281617    	3.3376510e-04
0.000282022    	3.3682990e-04
0.000282427    	3.4035366e-04
0.000282833    	3.4351608e-04
0.000283238    	3.4695846e-04
0.000283643    	3.5005821e-04
0.000284048    	3.5300808e-04
0.000284453    	3.5562918e-04
0.000284858    	3.5854110e-04
0.000285263    	3.5999951e-04
0.000285668    	3.6250801e-04
0.000286073    	3.6409479e-04
0.000286479    	3.6507339e-04
0.000286884    	3.6628340e-04
0.000287289    	3.6682791e-04
0.000287694    	3.6751998e-04
0.000288099    	3.6699185e-04
0.000288504    	3.6802785e-04
0.000288909    	3.6702001e-04
0.000289314    	3.6745656e-04
0.000289719    	3.6629598e-04
0.000290125    	3.6583306e-04
0.00029053     	3.6495258e-04
0.000290935    	3.6365067e-04
0.00029134     	3.6253238e-04
0.000291745    	3.6146540e-04
0.00029215     	3.5955590e-04
0.000292555    	3.5844202e-04
0.00029296     	3.5624657e-04
0.000293365    	3.5491730e-04
0.000293771    	3.5302080e-04
0.000294176    	3.5170546e-04
0.000294581    	3.4988871e-04
0.000294986    	3.4820069e-04
0.000295391    	3.4652989e-04
0.000295796    	3.4462131e-04
0.000296201    	3.4290699e-04
0.000296606    	3.4100712e-04
0.000297011    	3.3944238e-04
0.000297417    	3.3749899e-04
0.000297822    	3.3607702e-04
0.000298227    	3.3440573e-04
0.000298632    	3.3294422e-04
0.000299037    	3.3140968e-04
0.000299442    	3.3076081e-04
0.000299847    	3.2871850e-04
0.000300253    	3.2901037e-04
0.000300658    	3.2750189e-04
0.000301063    	3.2727342e-04
0.000301468    	3.2722030e-04
0.000301873    	3.2690011e-04
0.000302278    	3.2725244e-04
0.000302683    	3.2736023e-04
0.000303089    	3.2839118e-04
0.000303494    	3.2803984e-04
0.000303899    	3.2988239e-04
0.000304304    	3.2986478e-04
0.000304709    	3.3082514e-04
0.000305114    	3.3208815e-04
0.000305519    	3.3252601e-04
0.000305924    	3.3365549e-04
0.00030633     	3.3442019e-04
0.000306735    	3.3554727e-04
0.00030714     	3.3580106e-04
0.000307545    	3.3720603e-04
0.00030795     	3.3741918e-04
0.000308355    	3.3802615e-04
0.00030876     	3.3929581e-04
0.000309166    	3.3896610e-04
0.000309571    	3.4070810e-04
0.000309976    	3.4074681e-04
0.000310381    	3.4224852e-04
0.000310786    	3.4280407e-04
0.000311191    	3.4440458e-04
0.000311596    	3.4561541e-04
0.000312001    	3.4716999e-04
0.000312407    	3.4982965e-04
0.000312812    	3.5099085e-04
0.000313217    	3.5444194e-04
0.000313622    	3.5628391e-04
0.000314027    	3.5963753e-04
0.000314432    	3.6183103e-04
0.000314837    	3.6513773e-04
0.000315243    	3.6684563e-04
0.000315648    	3.6958043e-04
0.000316053    	3.7153065e-04
0.000316458    	3.7214451e-04
0.000316863    	3.7428124e-04
0.000317268    	3.7386307e-04
0.000317673    	3.7393475e-04
0.000318078    	3.7350384e-04
0.000318484    	3.7161588e-04
0.000318889    	3.7029791e-04
0.000319294    	3.6806814e-04
0.000319699    	3.6570713e-04
0.000320104    	3.6202357e-04
0.000320509    	3.5917912e-04
0.000320914    	3.5520925e-04
0.00032132     	3.5106209e-04
0.000321725    	3.4754073e-04
0.00032213     	3.4354671e-04
0.000322535    	3.3965898e-04
0.00032294     	3.3650903e-04
0.000323345    	3.3305713e-04
0.00032375     	3.2955466e-04
0.000324155    	3.2779223e-04
0.000324561    	3.2498559e-04
0.000324966    	3.2316049e-04
0.000325371    	3.2225046e-04
0.000325776    	3.2066918e-04
0.000326181    	3.2028315e-04
0.000326586    	3.2018101e-04
0.000326991    	3.1993320e-04
0.000327397    	3.2047475e-04
0.000327802    	3.2115763e-04
0.000328207    	3.2177226e-04
0.000328612    	3.2267261e-04
0.000329017    	3.2381231e-04
0.000329422    	3.2477702e-04
0.000329827    	3.2575033e-04
0.000330232    	3.2676033e-04
0.000330638    	3.2779727e-04
0.000331043    	3.2837946e-04
0.000331448    	3.2967047e-04
0.000331853    	3.3019377e-04
0.000332258    	3.3053570e-04
0.000332663    	3.3199262e-04
0.000333068    	3.3219815e-04
0.000333474    	3.3295162e-04
0.000333879    	3.3430439e-04
0.000334284    	3.3467047e-04
0.000334689    	3.3618927e-04
0.000335094    	3.3738600e-04
0.000335499    	3.3852562e-04
0.000335904    	3.4030398e-04
0.000336309    	3.4206216e-04
0.000336715    	3.4384423e-04
0.00033712     	3.4577176e-04
0.000337525    	3.4778973e-04
0.00033793     	3.5003537e-04
0.000338335    	3.5163508e-04
0.00033874     	3.5377740e-04
0.000339145    	3.5579496e-04
0.000339551    	3.5678754e-04
0.000339956    	3.5880882e-04
0.000340361    	3.5994949e-04
0.000340766    	3.6006213e-04
0.000341171    	3.6154582e-04
0.000341576    	3.6141111e-04
0.000341981    	3.6141049e-04
0.000342387    	3.6151835e-04
0.000342792    	3.6086411e-04
0.000343197    	3.6035234e-04
0.000343602    	3.5959301e-04
0.000344007    	3.5855001e-04
0.000344412    	3.5802448e-04
0.000344817    	3.5651770e-04
0.000345222    	3.5605280e-04
0.000345628    	3.5514200e-04
0.000346033    	3.5372227e-04
0.000346438    	3.5381778e-04
0.000346843    	3.5277421e-04
0.000347248    	3.5201622e-04
0.000347653    	3.5209636e-04
0.000348058    	3.5133149e-04
0.000348464    	3.5107027e-04
0.000348869    	3.5095432e-04
0.000349274    	3.5033036e-04
0.000349679    	3.5043907e-04
0.000350084    	3.4962423e-04
0.000350489    	3.4972241e-04
0.000350894    	3.4911286e-04
0.000351299    	3.4845381e-04
0.000351705    	3.4857828e-04
0.00035211     	3.4775842e-04
0.000352515    	3.4718532e-04
0.00035292     	3.4754548e-04
0.000353325    	3.4684468e-04
0.00035373     	3.4672644e-04
0.000354135    	3.4715038e-04
0.000354541    	3.4646790e-04
0.000354946    	3.4751940e-04
0.000355351    	3.4760261e-04
0.000355756    	3.4854588e-04
0.000356161    	3.4928495e-04
0.000356566    	3.5048841e-04
0.000356971    	3.5226328e-04
0.000357376    	3.5359336e-04
0.000357782    	3.5584554e-04
0.000358187    	3.5830127e-04
0.000358592    	3.6031676e-04
0.000358997    	3.6350614e-04
0.000359402    	3.6646110e-04
0.000359807    	3.6882400e-04
0.000360212    	3.7290002e-04
0.000360618    	3.7574717e-04
0.000361023    	3.7910446e-04
0.000361428    	3.8286770e-04
0.000361833    	3.8585326e-04
0.000362238    	3.8982054e-04
0.000362643    	3.9284989e-04
0.000363048    	3.9636803e-04
0.000363453    	4.0001031e-04
0.000363859    	4.0303166e-04
0.000364264    	4.0715044e-04
0.000364669    	4.1111616e-04
0.000365074    	4.1435379e-04
0.000365479    	4.1940677e-04
0.000365884    	4.2347463e-04
0.000366289    	4.2769454e-04
0.000366695    	4.3327457e-04
0.0003671      	4.3783998e-04
0.000367505    	4.4328053e-04
0.00036791     	4.4879286e-04
0.000368315    	4.5391450e-04
0.00036872     	4.6015192e-04
0.000369125    	4.6532970e-04
0.00036953     	4.7109348e-04
0.000369936    	4.7696636e-04
0.000370341    	4.8166131e-04
0.000370746    	4.8741759e-04
0.000371151    	4.9208091e-04
0.000371556    	4.9658140e-04
0.000371961    	5.0159719e-04
0.000372366    	5.0507105e-04
0.000372772    	5.0925077e-04
0.000373177    	5.1260836e-04
0.000373582    	5.1507738e-04
0.000373987    	5.1855509e-04
0.000374392    	5.2056291e-04
0.000374797    	5.2310731e-04
0.000375202    	5.2575415e-04
0.000375607    	5.2725714e-04
0.000376013    	5.3002513e-04
0.000376418    	5.3186486e-04
0.000376823    	5.3374514e-04
0.000377228    	5.3671120e-04
0.000377633    	5.3848548e-04
0.000378038    	5.4145506e-04
0.000378443    	5.4423788e-04
0.000378849    	5.4645822e-04
0.000379254    	5.5015903e-04
0.000379659    	5.5252796e-04
0.000380064    	5.5562021e-04
0.000380469    	5.5892063e-04
0.000380874    	5.6091471e-04
0.000381279    	5.6395585e-04
0.000381685    	5.6586418e-04
0.00038209     	5.6748913e-04
0.000382495    	5.6990621e-04
0.0003829      	5.7026494e-04
0.000383305    	5.7147738e-04
0.00038371     	5.7166470e-04
0.000384115    	5.7090617e-04
0.00038452     	5.7102427e-04
0.000384926    	5.6920323e-04
0.000385331    	5.6790584e-04
0.000385736    	5.6608052e-04
0.000386141    	5.6309262e-04
0.000386546    	5.6121541e-04
0.000386951    	5.5778719e-04
0.000387356    	5.5469274e-04
0.000387762    	5.5177612e-04
0.000388167    	5.4759253e-04
0.000388572    	5.4460115e-04
0.000388977    	5.4056828e-04
0.000389382    	5.3644142e-04
0.000389787    	5.3315944e-04
0.000390192    	5.2848237e-04
0.000390597    	5.2481766e-04
0.000391003    	5.2059818e-04
0.000391408    	5.1569971e-04
0.000391813    	5.1186617e-04
0.000392218    	5.0658489e-04
0.000392623    	5.0175646e-04
0.000393028    	4.9687000e-04
0.000393433    	4.9066831e-04
0.000393839    	4.8539884e-04
0.000394244    	4.7888028e-04
0.000394649    	4.7202426e-04
0.000395054    	4.6556292e-04
0.000395459    	4.5754606e-04
0.000395864    	4.4997375e-04