# Region type : patch cOutlet
# Faces  :     1744
# Area   :     4.2541269e-05
# Time         	sum(phi)
0              	0.0000000e+00
4.7259e-07     	1.8266919e-08
8.64331e-07    	1.7331835e-08
1.25607e-06    	1.5480776e-08
1.64781e-06    	1.4779600e-08
2.03955e-06    	1.4359626e-08
2.4313e-06     	1.3949757e-08
2.82304e-06    	1.3685738e-08
3.21478e-06    	1.3585376e-08
3.60652e-06    	1.3593307e-08
3.99826e-06    	1.3676005e-08
4.39e-06       	1.3811118e-08
4.78174e-06    	1.3971876e-08
5.17348e-06    	1.4140567e-08
5.56522e-06    	1.4313545e-08
5.95697e-06    	1.4489334e-08
6.34871e-06    	1.4664328e-08
6.74045e-06    	1.4838999e-08
7.13219e-06    	1.5017070e-08
7.52393e-06    	1.5199259e-08
7.91567e-06    	1.5384080e-08
8.30741e-06    	1.5570888e-08
8.69915e-06    	1.5759039e-08
9.09089e-06    	1.5947184e-08
9.48263e-06    	1.6134462e-08
9.87438e-06    	1.6320742e-08
1.02661e-05    	1.6505855e-08
1.06579e-05    	1.6689609e-08
1.10496e-05    	1.6871954e-08
1.14413e-05    	1.7052619e-08
1.18331e-05    	1.7231606e-08
1.22248e-05    	1.7409072e-08
1.26166e-05    	1.7584879e-08
1.30083e-05    	1.7758881e-08
1.34e-05       	1.7931176e-08
1.37918e-05    	1.8102216e-08
1.41835e-05    	1.8272083e-08
1.45753e-05    	1.8440601e-08
1.4967e-05     	1.8607562e-08
1.53588e-05    	1.8772976e-08
1.57505e-05    	1.8937066e-08
1.61422e-05    	1.9099998e-08
1.6534e-05     	1.9261841e-08
1.69257e-05    	1.9422662e-08
1.73175e-05    	1.9582509e-08
1.77092e-05    	1.9741220e-08
1.81009e-05    	1.9898618e-08
1.84927e-05    	2.0054522e-08
1.88844e-05    	2.0208886e-08
1.92762e-05    	2.0361736e-08
1.96679e-05    	2.0513081e-08
2.00596e-05    	2.0662983e-08
2.04514e-05    	2.0811559e-08
2.08431e-05    	2.0958921e-08
2.12349e-05    	2.1105258e-08
2.16266e-05    	2.1250700e-08
2.20184e-05    	2.1395370e-08
2.24101e-05    	2.1539338e-08
2.28018e-05    	2.1682623e-08
2.31936e-05    	2.1825248e-08
2.35853e-05    	2.1967231e-08
2.39771e-05    	2.2108500e-08
2.43688e-05    	2.2249094e-08
2.47605e-05    	2.2388994e-08
2.51523e-05    	2.2528139e-08
2.5544e-05     	2.2666492e-08
2.59358e-05    	2.2804009e-08
2.63275e-05    	2.2940551e-08
2.67192e-05    	2.3076060e-08
2.7111e-05     	2.3210478e-08
2.75027e-05    	2.3343778e-08
2.78945e-05    	2.3475894e-08
2.82862e-05    	2.3606772e-08
2.86779e-05    	2.3736398e-08
2.90697e-05    	2.3864738e-08
2.94614e-05    	2.3991724e-08
2.98532e-05    	2.4117262e-08
3.02449e-05    	2.4241252e-08
3.06367e-05    	2.4363598e-08
3.10284e-05    	2.4484198e-08
3.14201e-05    	2.4602987e-08
3.18119e-05    	2.4719877e-08
3.22036e-05    	2.4834927e-08
3.25954e-05    	2.4948118e-08
3.29871e-05    	2.5059397e-08
3.33788e-05    	2.5168663e-08
3.37706e-05    	2.5276006e-08
3.41623e-05    	2.5381482e-08
3.45541e-05    	2.5485066e-08
3.49458e-05    	2.5586759e-08
3.53375e-05    	2.5686576e-08
3.57293e-05    	2.5784495e-08
3.6121e-05     	2.5880552e-08
3.65128e-05    	2.5974819e-08
3.69045e-05    	2.6067381e-08
3.72963e-05    	2.6158282e-08
3.7688e-05     	2.6247598e-08
3.80797e-05    	2.6335444e-08
3.84715e-05    	2.6421899e-08
3.88632e-05    	2.6507028e-08
3.9255e-05     	2.6590868e-08
3.96467e-05    	2.6673434e-08
4.00384e-05    	2.6754724e-08
4.04302e-05    	2.6834737e-08
4.08219e-05    	2.6913462e-08
4.12137e-05    	2.6990861e-08
4.16054e-05    	2.7066941e-08
4.19971e-05    	2.7141805e-08
4.23889e-05    	2.7215493e-08
4.27806e-05    	2.7287885e-08
4.31724e-05    	2.7358932e-08
4.35641e-05    	2.7428698e-08
4.39559e-05    	2.7497213e-08
4.43476e-05    	2.7564419e-08
4.47393e-05    	2.7630261e-08
4.51311e-05    	2.7694674e-08
4.55228e-05    	2.7757605e-08
4.59146e-05    	2.7819018e-08
4.63063e-05    	2.7878872e-08
4.6698e-05     	2.7937113e-08
4.70898e-05    	2.7993678e-08
4.74815e-05    	2.8048510e-08
4.78733e-05    	2.8101571e-08
4.8265e-05     	2.8152818e-08
4.86567e-05    	2.8202207e-08
4.90485e-05    	2.8249707e-08
4.94402e-05    	2.8295296e-08
4.9832e-05     	2.8338954e-08
5.02237e-05    	2.8380651e-08
5.06155e-05    	2.8420363e-08
5.10072e-05    	2.8458071e-08
5.13989e-05    	2.8493770e-08
5.17907e-05    	2.8527476e-08
5.21824e-05    	2.8559223e-08
5.25742e-05    	2.8589063e-08
5.29659e-05    	2.8617022e-08
5.33576e-05    	2.8643143e-08
5.37494e-05    	2.8667434e-08
5.41411e-05    	2.8689937e-08
5.45329e-05    	2.8710692e-08
5.49246e-05    	2.8729736e-08
5.53163e-05    	2.8747110e-08
5.57081e-05    	2.8762863e-08
5.60998e-05    	2.8777047e-08
5.64916e-05    	2.8789705e-08
5.68833e-05    	2.8800880e-08
5.7275e-05     	2.8810608e-08
5.76668e-05    	2.8818925e-08
5.80585e-05    	2.8825880e-08
5.84503e-05    	2.8831512e-08
5.8842e-05     	2.8835860e-08
5.92338e-05    	2.8838979e-08
5.96255e-05    	2.8840931e-08
6.00172e-05    	2.8841781e-08
6.0409e-05     	2.8841630e-08
6.08007e-05    	2.8840559e-08
6.11925e-05    	2.8838679e-08
6.15842e-05    	2.8836119e-08
6.19759e-05    	2.8833057e-08
6.23677e-05    	2.8829730e-08
6.27594e-05    	2.8826396e-08
6.31512e-05    	2.8823366e-08
6.35429e-05    	2.8820991e-08
6.39346e-05    	2.8819661e-08
6.43264e-05    	2.8819816e-08
6.47181e-05    	2.8821976e-08
6.51099e-05    	2.8826752e-08
6.55016e-05    	2.8834798e-08
6.58934e-05    	2.8846844e-08
6.62851e-05    	2.8863724e-08
6.66768e-05    	2.8886319e-08
6.70686e-05    	2.8915629e-08
6.74603e-05    	2.8952413e-08
6.78521e-05    	2.8997379e-08
6.82438e-05    	2.9051241e-08
6.86355e-05    	2.9114809e-08
6.90273e-05    	2.9188942e-08
6.9419e-05     	2.9274214e-08
6.98108e-05    	2.9371261e-08
7.02025e-05    	2.9480335e-08
7.05942e-05    	2.9601476e-08
7.0986e-05     	2.9734695e-08
7.13777e-05    	2.9879749e-08
7.17695e-05    	3.0036612e-08
7.21612e-05    	3.0205275e-08
7.2553e-05     	3.0385034e-08
7.29447e-05    	3.0575129e-08
7.33364e-05    	3.0774772e-08
7.37282e-05    	3.0983184e-08
7.41199e-05    	3.1199743e-08
7.45117e-05    	3.1423694e-08
7.49034e-05    	3.1654098e-08
7.52951e-05    	3.1890027e-08
7.56869e-05    	3.2130547e-08
7.60786e-05    	3.2374776e-08
7.64704e-05    	3.2621885e-08
7.68621e-05    	3.2871055e-08
7.72538e-05    	3.3121488e-08
7.76456e-05    	3.3372394e-08
7.80373e-05    	3.3622951e-08
7.84291e-05    	3.3872454e-08
7.88208e-05    	3.4120344e-08
7.92126e-05    	3.4366066e-08
7.96043e-05    	3.4609091e-08
7.9996e-05     	3.4848975e-08
8.03878e-05    	3.5084973e-08
8.07795e-05    	3.5315877e-08
8.11713e-05    	3.5542346e-08
8.1563e-05     	3.5764766e-08
8.19547e-05    	3.5982346e-08
8.23465e-05    	3.6194243e-08
8.27382e-05    	3.6400000e-08
8.313e-05      	3.6599351e-08
8.35217e-05    	3.6792100e-08
8.39134e-05    	3.6978075e-08
8.43052e-05    	3.7157094e-08
8.46969e-05    	3.7328970e-08
8.50887e-05    	3.7493580e-08
8.54804e-05    	3.7650831e-08
8.58721e-05    	3.7800608e-08
8.62639e-05    	3.7942811e-08
8.66556e-05    	3.8077709e-08
8.70474e-05    	3.8205656e-08
8.74391e-05    	3.8327241e-08
8.78309e-05    	3.8442869e-08
8.82226e-05    	3.8552952e-08
8.86143e-05    	3.8657940e-08
8.90061e-05    	3.8758321e-08
8.93978e-05    	3.8854602e-08
8.97896e-05    	3.8947325e-08
9.01813e-05    	3.9037050e-08
9.0573e-05     	3.9124369e-08
9.09648e-05    	3.9209897e-08
9.13565e-05    	3.9294249e-08
9.17483e-05    	3.9377983e-08
9.214e-05      	3.9461648e-08
9.25317e-05    	3.9545864e-08
9.29235e-05    	3.9631123e-08
9.33152e-05    	3.9717720e-08
9.3707e-05     	3.9805835e-08
9.40987e-05    	3.9895897e-08
9.44905e-05    	3.9988406e-08
9.48822e-05    	4.0083653e-08
9.52739e-05    	4.0181745e-08
9.56657e-05    	4.0282802e-08
9.60574e-05    	4.0386989e-08
9.64492e-05    	4.0494388e-08
9.68409e-05    	4.0605055e-08
9.72326e-05    	4.0719037e-08
9.76244e-05    	4.0836330e-08
9.80161e-05    	4.0956808e-08
9.84079e-05    	4.1080395e-08
9.87996e-05    	4.1207016e-08
9.91913e-05    	4.1336529e-08
9.95831e-05    	4.1468712e-08
9.99748e-05    	4.1603360e-08
0.000100367    	4.1740254e-08
0.000100758    	4.1879174e-08
0.00010115     	4.2019886e-08
0.000101542    	4.2162100e-08
0.000101934    	4.2305479e-08
0.000102325    	4.2449631e-08
0.000102717    	4.2594111e-08
0.000103109    	4.2738534e-08
0.0001035      	4.2882631e-08
0.000103892    	4.3026165e-08
0.000104284    	4.3168921e-08
0.000104676    	4.3310752e-08
0.000105067    	4.3451637e-08
0.000105459    	4.3591650e-08
0.000105851    	4.3731021e-08
0.000106243    	4.3870214e-08
0.000106634    	4.4009895e-08
0.000107026    	4.4150914e-08
0.000107418    	4.4294621e-08
0.00010781     	4.4442977e-08
0.000108201    	4.4598365e-08
0.000108593    	4.4763719e-08
0.000108985    	4.4942629e-08
0.000109377    	4.5139739e-08
0.000109768    	4.5360818e-08
0.00011016     	4.5613945e-08
0.000110552    	4.5909474e-08
0.000110944    	4.6258615e-08
0.000111335    	4.6675316e-08
0.000111727    	4.7180588e-08
0.000112119    	4.7802115e-08
0.000112511    	4.8566914e-08
0.000112902    	4.9501821e-08
0.000113294    	5.0643223e-08
0.000113686    	5.2038794e-08
0.000114078    	5.3743814e-08
0.000114469    	5.5841709e-08
0.000114861    	5.8439426e-08
0.000115253    	6.1662996e-08
0.000115644    	6.5657554e-08
0.000116036    	7.0600701e-08
0.000116428    	7.6703589e-08
0.00011682     	8.4222591e-08
0.000117211    	9.3470970e-08
0.000117603    	1.0482646e-07
0.000117995    	1.1873094e-07
0.000118387    	1.3569226e-07
0.000118778    	1.5630232e-07
0.00011917     	1.8124561e-07
0.000119562    	2.1128041e-07
0.000119954    	2.4724402e-07
0.000120345    	2.9003937e-07
0.000120737    	3.4062829e-07
0.000121129    	4.0000561e-07
0.000121521    	4.6917581e-07
0.000121912    	5.4913065e-07
0.000122304    	6.4081660e-07
0.000122696    	7.4511596e-07
0.000123088    	8.6282706e-07
0.000123479    	9.9464039e-07
0.000123871    	1.1411191e-06
0.000124263    	1.3026880e-06
0.000124655    	1.4796397e-06
0.000125046    	1.6721370e-06
0.000125438    	1.8801881e-06
0.00012583     	2.1036802e-06
0.000126221    	2.3423554e-06
0.000126613    	2.5958161e-06
0.000127005    	2.8635367e-06
0.000127397    	3.1448461e-06
0.000127788    	3.4390509e-06
0.00012818     	3.7453750e-06
0.000128572    	4.0628890e-06
0.000128964    	4.3905716e-06
0.000129355    	4.7273042e-06
0.000129747    	5.0719459e-06
0.000130139    	5.4233574e-06
0.000130531    	5.7803005e-06
0.000130922    	6.1415376e-06
0.000131314    	6.5058387e-06
0.000131706    	6.8719478e-06
0.000132098    	7.2385641e-06
0.000132489    	7.6044397e-06
0.000132881    	7.9684005e-06
0.000133273    	8.3293047e-06
0.000133665    	8.6859909e-06
0.000134056    	9.0373130e-06
0.000134448    	9.3820981e-06
0.00013484     	9.7191940e-06
0.000135232    	1.0047442e-05
0.000135623    	1.0365942e-05
0.000136015    	1.0673971e-05
0.000136407    	1.0970579e-05
0.000136798    	1.1254970e-05
0.00013719     	1.1526559e-05
0.000137582    	1.1784894e-05
0.000137974    	1.2029817e-05
0.000138365    	1.2261312e-05
0.000138757    	1.2479364e-05
0.000139149    	1.2684007e-05
0.000139541    	1.2875421e-05
0.000139932    	1.3053651e-05
0.000140324    	1.3218946e-05
0.000140716    	1.3371776e-05
0.000141108    	1.3512507e-05
0.000141499    	1.3641597e-05
0.000141891    	1.3759880e-05
0.000142283    	1.3868287e-05
0.000142675    	1.3967891e-05
0.000143066    	1.4059908e-05
0.000143458    	1.4145753e-05
0.00014385     	1.4226921e-05
0.000144242    	1.4305014e-05
0.000144633    	1.4381705e-05
0.000145025    	1.4458564e-05
0.000145417    	1.4537136e-05
0.000145809    	1.4619024e-05
0.0001462      	1.4705929e-05
0.000146592    	1.4799694e-05
0.000146984    	1.4902258e-05
0.000147376    	1.5015935e-05
0.000147767    	1.5143377e-05
0.000148159    	1.5287390e-05
0.000148551    	1.5450547e-05
0.000148942    	1.5634542e-05
0.000149334    	1.5839842e-05
0.000149726    	1.6067599e-05
0.000150118    	1.6319401e-05
0.000150509    	1.6595599e-05
0.000150901    	1.6895690e-05
0.000151293    	1.7218824e-05
0.000151685    	1.7563794e-05
0.000152076    	1.7929060e-05
0.000152468    	1.8312884e-05
0.00015286     	1.8713360e-05
0.000153252    	1.9128372e-05
0.000153643    	1.9555633e-05
0.000154035    	1.9992677e-05
0.000154427    	2.0436677e-05
0.000154819    	2.0885127e-05
0.00015521     	2.1335776e-05
0.000155602    	2.1786224e-05
0.000155994    	2.2233921e-05
0.000156386    	2.2676507e-05
0.000156777    	2.3111927e-05
0.000157169    	2.3538261e-05
0.000157561    	2.3953592e-05
0.000157953    	2.4356144e-05
0.000158344    	2.4744539e-05
0.000158736    	2.5117833e-05
0.000159128    	2.5475349e-05
0.000159519    	2.5816386e-05
0.000159911    	2.6140185e-05
0.000160303    	2.6445923e-05
0.000160695    	2.6732659e-05
0.000161086    	2.7000326e-05
0.000161478    	2.7249236e-05
0.00016187     	2.7479348e-05
0.000162262    	2.7690565e-05
0.000162653    	2.7883062e-05
0.000163045    	2.8057240e-05
0.000163437    	2.8214177e-05
0.000163829    	2.8355181e-05
0.00016422     	2.8481638e-05
0.000164612    	2.8594625e-05
0.000165004    	2.8695376e-05
0.000165396    	2.8785260e-05
0.000165787    	2.8865782e-05
0.000166179    	2.8938600e-05
0.000166571    	2.9005437e-05
0.000166963    	2.9067960e-05
0.000167354    	2.9127823e-05
0.000167746    	2.9186626e-05
0.000168138    	2.9245935e-05
0.00016853     	2.9307341e-05
0.000168921    	2.9372498e-05
0.000169313    	2.9443133e-05
0.000169705    	2.9520923e-05
0.000170096    	2.9607417e-05
0.000170488    	2.9703945e-05
0.00017088     	2.9812024e-05
0.000171272    	2.9933394e-05
0.000171663    	3.0070032e-05
0.000172055    	3.0224047e-05
0.000172447    	3.0397481e-05
0.000172839    	3.0592384e-05
0.00017323     	3.0810375e-05
0.000173622    	3.1052527e-05
0.000174014    	3.1319260e-05
0.000174406    	3.1610643e-05
0.000174797    	3.1925944e-05
0.000175189    	3.2264076e-05
0.000175581    	3.2624278e-05
0.000175973    	3.3006216e-05
0.000176364    	3.3409624e-05
0.000176756    	3.3833932e-05
0.000177148    	3.4278348e-05
0.00017754     	3.4742117e-05
0.000177931    	3.5224804e-05
0.000178323    	3.5725772e-05
0.000178715    	3.6244146e-05
0.000179107    	3.6778874e-05
0.000179498    	3.7328907e-05
0.00017989     	3.7893120e-05
0.000180282    	3.8470234e-05
0.000180673    	3.9058811e-05
0.000181065    	3.9657231e-05
0.000181457    	4.0263750e-05
0.000181849    	4.0876480e-05
0.00018224     	4.1493482e-05
0.000182632    	4.2112722e-05
0.000183024    	4.2732148e-05
0.000183416    	4.3349679e-05
0.000183807    	4.3963152e-05
0.000184199    	4.4570456e-05
0.000184591    	4.5169505e-05
0.000184983    	4.5758239e-05
0.000185374    	4.6334721e-05
0.000185766    	4.6897209e-05
0.000186158    	4.7443902e-05
0.00018655     	4.7973013e-05
0.000186941    	4.8483333e-05
0.000187333    	4.8973908e-05
0.000187725    	4.9443696e-05
0.000188117    	4.9892133e-05
0.000188508    	5.0319022e-05
0.0001889      	5.0724106e-05
0.000189292    	5.1107321e-05
0.000189684    	5.1468479e-05
0.000190075    	5.1807685e-05
0.000190467    	5.2125762e-05
0.000190859    	5.2423282e-05
0.000191251    	5.2700861e-05
0.000191642    	5.2959440e-05
0.000192034    	5.3200293e-05
0.000192426    	5.3424845e-05
0.000192817    	5.3634430e-05
0.000193209    	5.3830858e-05
0.000193601    	5.4015895e-05
0.000193993    	5.4191026e-05
0.000194384    	5.4357952e-05
0.000194776    	5.4518467e-05
0.000195168    	5.4674257e-05
0.00019556     	5.4826952e-05
0.000195951    	5.4978164e-05
0.000196343    	5.5129537e-05
0.000196735    	5.5282855e-05
0.000197127    	5.5439873e-05
0.000197518    	5.5602372e-05
0.00019791     	5.5772559e-05
0.000198302    	5.5952775e-05
0.000198694    	5.6145398e-05
0.000199085    	5.6352800e-05
0.000199477    	5.6577265e-05
0.000199869    	5.6821183e-05
0.000200261    	5.7087321e-05
0.000200652    	5.7378702e-05
0.000201044    	5.7698443e-05
0.000201436    	5.8049502e-05
0.000201828    	5.8434726e-05
0.000202219    	5.8856015e-05
0.000202611    	5.9313711e-05
0.000203003    	5.9807011e-05
0.000203394    	6.0334064e-05
0.000203786    	6.0892542e-05
0.000204178    	6.1479945e-05
0.00020457     	6.2093394e-05
0.000204961    	6.2729690e-05
0.000205353    	6.3385410e-05
0.000205745    	6.4056912e-05
0.000206137    	6.4740390e-05
0.000206528    	6.5432201e-05
0.00020692     	6.6128751e-05
0.000207312    	6.6826676e-05
0.000207704    	6.7522922e-05
0.000208095    	6.8214735e-05
0.000208487    	6.8899843e-05
0.000208879    	6.9576552e-05
0.000209271    	7.0243534e-05
0.000209662    	7.0899820e-05
0.000210054    	7.1544865e-05
0.000210446    	7.2178525e-05
0.000210838    	7.2800947e-05
0.000211229    	7.3412519e-05
0.000211621    	7.4013839e-05
0.000212013    	7.4605729e-05
0.000212405    	7.5189046e-05
0.000212796    	7.5764560e-05
0.000213188    	7.6333008e-05
0.00021358     	7.6895051e-05
0.000213971    	7.7451286e-05
0.000214363    	7.8002199e-05
0.000214755    	7.8548170e-05
0.000215147    	7.9089359e-05
0.000215538    	7.9625734e-05
0.00021593     	8.0157152e-05
0.000216322    	8.0683456e-05
0.000216714    	8.1204507e-05
0.000217105    	8.1720183e-05
0.000217497    	8.2230345e-05
0.000217889    	8.2734949e-05
0.000218281    	8.3234023e-05
0.000218672    	8.3727667e-05
0.000219064    	8.4216102e-05
0.000219456    	8.4699715e-05
0.000219848    	8.5179001e-05
0.000220239    	8.5654623e-05
0.000220631    	8.6127419e-05
0.000221023    	8.6598332e-05
0.000221415    	8.7068442e-05
0.000221806    	8.7538940e-05
0.000222198    	8.8011063e-05
0.00022259     	8.8486022e-05
0.000222982    	8.8965015e-05
0.000223373    	8.9449224e-05
0.000223765    	8.9939623e-05
0.000224157    	9.0436929e-05
0.000224548    	9.0941676e-05
0.00022494     	9.1454262e-05
0.000225332    	9.1974859e-05
0.000225724    	9.2503360e-05
0.000226115    	9.3039366e-05
0.000226507    	9.3582282e-05
0.000226899    	9.4131476e-05
0.000227291    	9.4686363e-05
0.000227682    	9.5246308e-05
0.000228074    	9.5810745e-05
0.000228466    	9.6379165e-05
0.000228858    	9.6951068e-05
0.000229249    	9.7526136e-05
0.000229641    	9.8104205e-05
0.000230033    	9.8685120e-05
0.000230425    	9.9268912e-05
0.000230816    	9.9855866e-05
0.000231208    	1.0044636e-04
0.0002316      	1.0104064e-04
0.000231992    	1.0163897e-04
0.000232383    	1.0224164e-04
0.000232775    	1.0284879e-04
0.000233167    	1.0346042e-04
0.000233559    	1.0407634e-04
0.00023395     	1.0469618e-04
0.000234342    	1.0531932e-04
0.000234734    	1.0594485e-04
0.000235126    	1.0657167e-04
0.000235517    	1.0719830e-04
0.000235909    	1.0782291e-04
0.000236301    	1.0844365e-04
0.000236692    	1.0905867e-04
0.000237084    	1.0966594e-04
0.000237476    	1.1026348e-04
0.000237868    	1.1084955e-04
0.000238259    	1.1142233e-04
0.000238651    	1.1198011e-04
0.000239043    	1.1252165e-04
0.000239435    	1.1304633e-04
0.000239826    	1.1355412e-04
0.000240218    	1.1404583e-04
0.00024061     	1.1452319e-04
0.000241002    	1.1498812e-04
0.000241393    	1.1544271e-04
0.000241785    	1.1588904e-04
0.000242177    	1.1632956e-04
0.000242569    	1.1676694e-04
0.00024296     	1.1720409e-04
0.000243352    	1.1764413e-04
0.000243744    	1.1809013e-04
0.000244136    	1.1854499e-04
0.000244527    	1.1901136e-04
0.000244919    	1.1949167e-04
0.000245311    	1.1998810e-04
0.000245703    	1.2050269e-04
0.000246094    	1.2103728e-04
0.000246486    	1.2159330e-04
0.000246878    	1.2217151e-04
0.000247269    	1.2277223e-04
0.000247661    	1.2339518e-04
0.000248053    	1.2403945e-04
0.000248445    	1.2470355e-04
0.000248836    	1.2538506e-04
0.000249228    	1.2608068e-04
0.00024962     	1.2678666e-04
0.000250012    	1.2749894e-04
0.000250403    	1.2821317e-04
0.000250795    	1.2892521e-04
0.000251187    	1.2963093e-04
0.000251579    	1.3032636e-04
0.00025197     	1.3100790e-04
0.000252362    	1.3167236e-04
0.000252754    	1.3231724e-04
0.000253146    	1.3294082e-04
0.000253537    	1.3354140e-04
0.000253929    	1.3411686e-04
0.000254321    	1.3466557e-04
0.000254713    	1.3518765e-04
0.000255104    	1.3568518e-04
0.000255496    	1.3616046e-04
0.000255888    	1.3661456e-04
0.00025628     	1.3704780e-04
0.000256671    	1.3746088e-04
0.000257063    	1.3785527e-04
0.000257455    	1.3823299e-04
0.000257846    	1.3859592e-04
0.000258238    	1.3894586e-04
0.00025863     	1.3928455e-04
0.000259022    	1.3961361e-04
0.000259413    	1.3993470e-04
0.000259805    	1.4024984e-04
0.000260197    	1.4056120e-04
0.000260589    	1.4087091e-04
0.00026098     	1.4118125e-04
0.000261372    	1.4149461e-04
0.000261764    	1.4181339e-04
0.000262156    	1.4213993e-04
0.000262547    	1.4247645e-04
0.000262939    	1.4282505e-04
0.000263331    	1.4318779e-04
0.000263723    	1.4356647e-04
0.000264114    	1.4396251e-04
0.000264506    	1.4437721e-04
0.000264898    	1.4481144e-04
0.00026529     	1.4526577e-04
0.000265681    	1.4574052e-04
0.000266073    	1.4623538e-04
0.000266465    	1.4674953e-04
0.000266857    	1.4728186e-04
0.000267248    	1.4783107e-04
0.00026764     	1.4839552e-04
0.000268032    	1.4897322e-04
0.000268424    	1.4956182e-04
0.000268815    	1.5015902e-04
0.000269207    	1.5076257e-04
0.000269599    	1.5137024e-04
0.00026999     	1.5197973e-04
0.000270382    	1.5258885e-04
0.000270774    	1.5319557e-04
0.000271166    	1.5379794e-04
0.000271557    	1.5439423e-04
0.000271949    	1.5498296e-04
0.000272341    	1.5556294e-04
0.000272733    	1.5613321e-04
0.000273124    	1.5669291e-04
0.000273516    	1.5724162e-04
0.000273908    	1.5777918e-04
0.0002743      	1.5830550e-04
0.000274691    	1.5882061e-04
0.000275083    	1.5932485e-04
0.000275475    	1.5981851e-04
0.000275867    	1.6030182e-04
0.000276258    	1.6077506e-04
0.00027665     	1.6123855e-04
0.000277042    	1.6169274e-04
0.000277434    	1.6213785e-04
0.000277825    	1.6257412e-04
0.000278217    	1.6300198e-04
0.000278609    	1.6342181e-04
0.000279001    	1.6383368e-04
0.000279392    	1.6423760e-04
0.000279784    	1.6463370e-04
0.000280176    	1.6502199e-04
0.000280567    	1.6540262e-04
0.000280959    	1.6577602e-04
0.000281351    	1.6614246e-04
0.000281743    	1.6650242e-04
0.000282134    	1.6685657e-04
0.000282526    	1.6720525e-04
0.000282918    	1.6754901e-04
0.00028331     	1.6788831e-04
0.000283701    	1.6822385e-04
0.000284093    	1.6855650e-04
0.000284485    	1.6888719e-04
0.000284877    	1.6921673e-04
0.000285268    	1.6954597e-04
0.00028566     	1.6987587e-04
0.000286052    	1.7020738e-04
0.000286444    	1.7054144e-04
0.000286835    	1.7087897e-04
0.000287227    	1.7122088e-04
0.000287619    	1.7156800e-04
0.000288011    	1.7192107e-04
0.000288402    	1.7228067e-04
0.000288794    	1.7264719e-04
0.000289186    	1.7302082e-04
0.000289578    	1.7340171e-04
0.000289969    	1.7378991e-04
0.000290361    	1.7418529e-04
0.000290753    	1.7458751e-04
0.000291144    	1.7499607e-04
0.000291536    	1.7541035e-04
0.000291928    	1.7582963e-04
0.00029232     	1.7625314e-04
0.000292711    	1.7668019e-04
0.000293103    	1.7711014e-04
0.000293495    	1.7754242e-04
0.000293887    	1.7797662e-04
0.000294278    	1.7841247e-04
0.00029467     	1.7884982e-04
0.000295062    	1.7928862e-04
0.000295454    	1.7972896e-04
0.000295845    	1.8017116e-04
0.000296237    	1.8061567e-04
0.000296629    	1.8106299e-04
0.000297021    	1.8151357e-04
0.000297412    	1.8196782e-04
0.000297804    	1.8242616e-04
0.000298196    	1.8288903e-04
0.000298588    	1.8335680e-04
0.000298979    	1.8382961e-04
0.000299371    	1.8430741e-04
0.000299763    	1.8478982e-04
0.000300155    	1.8527641e-04
0.000300546    	1.8576649e-04
0.000300938    	1.8625919e-04
0.00030133     	1.8675346e-04
0.000301721    	1.8724815e-04
0.000302113    	1.8774212e-04
0.000302505    	1.8823415e-04
0.000302897    	1.8872295e-04
0.000303288    	1.8920711e-04
0.00030368     	1.8968530e-04
0.000304072    	1.9015635e-04
0.000304463    	1.9061917e-04
0.000304855    	1.9107287e-04
0.000305247    	1.9151684e-04
0.000305639    	1.9195045e-04
0.00030603     	1.9237325e-04
0.000306422    	1.9278504e-04
0.000306814    	1.9318574e-04
0.000307205    	1.9357535e-04
0.000307597    	1.9395402e-04
0.000307989    	1.9432210e-04
0.000308381    	1.9468015e-04
0.000308772    	1.9502875e-04
0.000309164    	1.9536844e-04
0.000309556    	1.9569970e-04
0.000309947    	1.9602317e-04
0.000310339    	1.9633954e-04
0.000310731    	1.9664940e-04
0.000311122    	1.9695324e-04
0.000311514    	1.9725161e-04
0.000311906    	1.9754519e-04
0.000312298    	1.9783458e-04
0.000312689    	1.9812021e-04
0.000313081    	1.9840239e-04
0.000313473    	1.9868154e-04
0.000313864    	1.9895810e-04
0.000314256    	1.9923229e-04
0.000314648    	1.9950424e-04
0.000315039    	1.9977419e-04
0.000315431    	2.0004234e-04
0.000315823    	2.0030872e-04
0.000316214    	2.0057329e-04
0.000316606    	2.0083619e-04
0.000316998    	2.0109743e-04
0.000317389    	2.0135696e-04
0.000317781    	2.0161474e-04
0.000318173    	2.0187074e-04
0.000318564    	2.0212494e-04
0.000318956    	2.0237733e-04
0.000319348    	2.0262795e-04
0.000319739    	2.0287694e-04
0.000320131    	2.0312444e-04
0.000320523    	2.0337056e-04
0.000320914    	2.0361537e-04
0.000321306    	2.0385904e-04
0.000321698    	2.0410172e-04
0.000322089    	2.0434354e-04
0.000322481    	2.0458463e-04
0.000322872    	2.0482517e-04
0.000323264    	2.0506534e-04
0.000323656    	2.0530521e-04
0.000324047    	2.0554491e-04
0.000324439    	2.0578454e-04
0.000324831    	2.0602420e-04
0.000325222    	2.0626402e-04
0.000325614    	2.0650411e-04
0.000326005    	2.0674455e-04
0.000326397    	2.0698547e-04
0.000326789    	2.0722697e-04
0.00032718     	2.0746916e-04
0.000327572    	2.0771215e-04
0.000327963    	2.0795614e-04
0.000328355    	2.0820134e-04
0.000328747    	2.0844783e-04
0.000329138    	2.0869566e-04
0.00032953     	2.0894486e-04
0.000329922    	2.0919530e-04
0.000330313    	2.0944680e-04
0.000330705    	2.0969917e-04
0.000331096    	2.0995217e-04
0.000331488    	2.1020534e-04
0.000331879    	2.1045811e-04
0.000332271    	2.1070981e-04
0.000332663    	2.1095970e-04
0.000333054    	2.1120695e-04
0.000333446    	2.1145068e-04
0.000333837    	2.1168997e-04
0.000334229    	2.1192384e-04
0.00033462     	2.1215140e-04
0.000335012    	2.1237179e-04
0.000335404    	2.1258424e-04
0.000335795    	2.1278821e-04
0.000336187    	2.1298344e-04
0.000336578    	2.1316984e-04
0.00033697     	2.1334751e-04
0.000337361    	2.1351680e-04
0.000337753    	2.1367822e-04
0.000338144    	2.1383244e-04
0.000338536    	2.1398031e-04
0.000338928    	2.1412289e-04
0.000339319    	2.1426127e-04
0.000339711    	2.1439665e-04
0.000340102    	2.1453033e-04
0.000340494    	2.1466359e-04
0.000340885    	2.1479769e-04
0.000341277    	2.1493387e-04
0.000341668    	2.1507344e-04
0.00034206     	2.1521770e-04
0.000342451    	2.1536800e-04
0.000342843    	2.1552562e-04
0.000343234    	2.1569180e-04
0.000343626    	2.1586789e-04
0.000344017    	2.1605440e-04
0.000344409    	2.1625178e-04
0.0003448      	2.1646024e-04
0.000345192    	2.1667971e-04
0.000345583    	2.1690978e-04
0.000345975    	2.1715000e-04
0.000346366    	2.1739979e-04
0.000346758    	2.1765830e-04
0.000347149    	2.1792451e-04
0.000347541    	2.1819726e-04
0.000347932    	2.1847533e-04
0.000348324    	2.1875746e-04
0.000348715    	2.1904235e-04
0.000349107    	2.1932880e-04
0.000349498    	2.1961566e-04
0.00034989     	2.1990187e-04
0.000350281    	2.2018638e-04
0.000350673    	2.2046827e-04
0.000351064    	2.2074677e-04
0.000351456    	2.2102124e-04
0.000351847    	2.2129113e-04
0.000352239    	2.2155608e-04
0.00035263     	2.2181585e-04
0.000353021    	2.2207025e-04
0.000353413    	2.2231914e-04
0.000353804    	2.2256242e-04
0.000354196    	2.2280009e-04
0.000354587    	2.2303210e-04
0.000354979    	2.2325839e-04
0.00035537     	2.2347895e-04
0.000355761    	2.2369386e-04
0.000356153    	2.2390326e-04
0.000356544    	2.2410726e-04
0.000356936    	2.2430608e-04
0.000357327    	2.2449990e-04
0.000357718    	2.2468887e-04
0.00035811     	2.2487326e-04
0.000358501    	2.2505351e-04
0.000358893    	2.2523004e-04
0.000359284    	2.2540325e-04
0.000359675    	2.2557355e-04
0.000360067    	2.2574133e-04
0.000360458    	2.2590695e-04
0.00036085     	2.2607073e-04
0.000361241    	2.2623302e-04
0.000361632    	2.2639411e-04
0.000362024    	2.2655420e-04
0.000362415    	2.2671339e-04
0.000362806    	2.2687172e-04
0.000363198    	2.2702912e-04
0.000363589    	2.2718538e-04
0.000363981    	2.2734022e-04
0.000364372    	2.2749332e-04
0.000364763    	2.2764423e-04
0.000365155    	2.2779237e-04
0.000365546    	2.2793710e-04
0.000365937    	2.2807761e-04
0.000366329    	2.2821308e-04
0.00036672     	2.2834270e-04
0.000367111    	2.2846576e-04
0.000367503    	2.2858162e-04
0.000367894    	2.2868958e-04
0.000368285    	2.2878909e-04
0.000368677    	2.2887972e-04
0.000369068    	2.2896123e-04
0.000369459    	2.2903350e-04
0.000369851    	2.2909649e-04
0.000370242    	2.2915038e-04
0.000370633    	2.2919547e-04
0.000371024    	2.2923223e-04
0.000371416    	2.2926136e-04
0.000371807    	2.2928368e-04
0.000372198    	2.2930009e-04
0.00037259     	2.2931164e-04
0.000372981    	2.2931944e-04
0.000373372    	2.2932475e-04
0.000373763    	2.2932894e-04
0.000374155    	2.2933344e-04
0.000374546    	2.2933975e-04
0.000374937    	2.2934937e-04
0.000375328    	2.2936378e-04
0.00037572     	2.2938448e-04
0.000376111    	2.2941287e-04
0.000376502    	2.2945018e-04
0.000376893    	2.2949749e-04
0.000377285    	2.2955564e-04
0.000377676    	2.2962505e-04
0.000378067    	2.2970592e-04
0.000378458    	2.2979826e-04
0.00037885     	2.2990180e-04
0.000379241    	2.3001604e-04
0.000379632    	2.3014044e-04
0.000380023    	2.3027428e-04
0.000380414    	2.3041659e-04
0.000380806    	2.3056608e-04
0.000381197    	2.3072136e-04
0.000381588    	2.3088093e-04
0.000381979    	2.3104310e-04
0.00038237     	2.3120610e-04
0.000382762    	2.3136808e-04
0.000383153    	2.3152723e-04
0.000383544    	2.3168176e-04
0.000383935    	2.3182995e-04
0.000384326    	2.3197030e-04
0.000384717    	2.3210159e-04
0.000385109    	2.3222293e-04
0.0003855      	2.3233385e-04
0.000385891    	2.3243413e-04
0.000386282    	2.3252381e-04
0.000386673    	2.3260307e-04
0.000387064    	2.3267227e-04
0.000387455    	2.3273189e-04
0.000387846    	2.3278247e-04
0.000388238    	2.3282452e-04
0.000388629    	2.3285860e-04
0.00038902     	2.3288526e-04
0.000389411    	2.3290501e-04
0.000389802    	2.3291844e-04