# Region type : patch cOutlet
# Faces  :     1744
# Area   :     4.2541269e-05
# Time         	sum(phi)
0              	0.0000000e+00
5.1074e-07     	1.8665403e-08
9.44866e-07    	1.7060371e-08
1.37899e-06    	1.5340780e-08
1.81312e-06    	1.4762135e-08
2.24725e-06    	1.4286027e-08
2.68137e-06    	1.3901774e-08
3.1155e-06     	1.3731357e-08
3.54962e-06    	1.3715693e-08
3.98375e-06    	1.3797541e-08
4.41788e-06    	1.3947355e-08
4.852e-06      	1.4127456e-08
5.28613e-06    	1.4315487e-08
5.72026e-06    	1.4508603e-08
6.15438e-06    	1.4703271e-08
6.58851e-06    	1.4896627e-08
7.02264e-06    	1.5092314e-08
7.45676e-06    	1.5293317e-08
7.89089e-06    	1.5498031e-08
8.32502e-06    	1.5705338e-08
8.75914e-06    	1.5914238e-08
9.19327e-06    	1.6122844e-08
9.62739e-06    	1.6330238e-08
1.00615e-05    	1.6536327e-08
1.04956e-05    	1.6740851e-08
1.09298e-05    	1.6943761e-08
1.13639e-05    	1.7144751e-08
1.1798e-05     	1.7343653e-08
1.22322e-05    	1.7540621e-08
1.26663e-05    	1.7735609e-08
1.31004e-05    	1.7928348e-08
1.35345e-05    	1.8119067e-08
1.39687e-05    	1.8308286e-08
1.44028e-05    	1.8495874e-08
1.48369e-05    	1.8681573e-08
1.5271e-05     	1.8865305e-08
1.57052e-05    	1.9047413e-08
1.61393e-05    	1.9228128e-08
1.65734e-05    	1.9407519e-08
1.70075e-05    	1.9585634e-08
1.74417e-05    	1.9762490e-08
1.78758e-05    	1.9937842e-08
1.83099e-05    	2.0111416e-08
1.8744e-05     	2.0283065e-08
1.91782e-05    	2.0452777e-08
1.96123e-05    	2.0620543e-08
2.00464e-05    	2.0786449e-08
2.04806e-05    	2.0950660e-08
2.09147e-05    	2.1113391e-08
2.13488e-05    	2.1274882e-08
2.17829e-05    	2.1435323e-08
2.22171e-05    	2.1594861e-08
2.26512e-05    	2.1753518e-08
2.30853e-05    	2.1911354e-08
2.35194e-05    	2.2068364e-08
2.39536e-05    	2.2224509e-08
2.43877e-05    	2.2379884e-08
2.48218e-05    	2.2534492e-08
2.52559e-05    	2.2688231e-08
2.56901e-05    	2.2841003e-08
2.61242e-05    	2.2992639e-08
2.65583e-05    	2.3143025e-08
2.69925e-05    	2.3292073e-08
2.74266e-05    	2.3439709e-08
2.78607e-05    	2.3585923e-08
2.82948e-05    	2.3730663e-08
2.8729e-05     	2.3873873e-08
2.91631e-05    	2.4015490e-08
2.95972e-05    	2.4155427e-08
3.00313e-05    	2.4293564e-08
3.04655e-05    	2.4429701e-08
3.08996e-05    	2.4563706e-08
3.13337e-05    	2.4695552e-08
3.17678e-05    	2.4825139e-08
3.2202e-05     	2.4952468e-08
3.26361e-05    	2.5077525e-08
3.30702e-05    	2.5200170e-08
3.35043e-05    	2.5320323e-08
3.39385e-05    	2.5438117e-08
3.43726e-05    	2.5553532e-08
3.48067e-05    	2.5666594e-08
3.52409e-05    	2.5777333e-08
3.5675e-05     	2.5885738e-08
3.61091e-05    	2.5991814e-08
3.65432e-05    	2.6095675e-08
3.69774e-05    	2.6197453e-08
3.74115e-05    	2.6297224e-08
3.78456e-05    	2.6395104e-08
3.82797e-05    	2.6491252e-08
3.87139e-05    	2.6585768e-08
3.9148e-05     	2.6678689e-08
3.95821e-05    	2.6770022e-08
4.00162e-05    	2.6859775e-08
4.04504e-05    	2.6947954e-08
4.08845e-05    	2.7034529e-08
4.13186e-05    	2.7119479e-08
4.17528e-05    	2.7202890e-08
4.21869e-05    	2.7284846e-08
4.2621e-05     	2.7365235e-08
4.30551e-05    	2.7443945e-08
4.34893e-05    	2.7521007e-08
4.39234e-05    	2.7596509e-08
4.43575e-05    	2.7670427e-08
4.47916e-05    	2.7742681e-08
4.52258e-05    	2.7813190e-08
4.56599e-05    	2.7881899e-08
4.6094e-05     	2.7948752e-08
4.65281e-05    	2.8013674e-08
4.69623e-05    	2.8076578e-08
4.73964e-05    	2.8137387e-08
4.78305e-05    	2.8196032e-08
4.82646e-05    	2.8252428e-08
4.86988e-05    	2.8306521e-08
4.91329e-05    	2.8358269e-08
4.9567e-05     	2.8407626e-08
5.00012e-05    	2.8454565e-08
5.04353e-05    	2.8499069e-08
5.08694e-05    	2.8541128e-08
5.13035e-05    	2.8580723e-08
5.17377e-05    	2.8617853e-08
5.21718e-05    	2.8652559e-08
5.26059e-05    	2.8684903e-08
5.304e-05      	2.8714924e-08
5.34742e-05    	2.8742657e-08
5.39083e-05    	2.8768160e-08
5.43424e-05    	2.8791483e-08
5.47765e-05    	2.8812667e-08
5.52107e-05    	2.8831761e-08
5.56448e-05    	2.8848839e-08
5.60789e-05    	2.8863970e-08
5.6513e-05     	2.8877219e-08
5.69472e-05    	2.8888637e-08
5.73813e-05    	2.8898281e-08
5.78154e-05    	2.8906203e-08
5.82496e-05    	2.8912471e-08
5.86837e-05    	2.8917129e-08
5.91178e-05    	2.8920243e-08
5.95519e-05    	2.8921884e-08
5.99861e-05    	2.8922141e-08
6.04202e-05    	2.8921154e-08
6.08543e-05    	2.8919039e-08
6.12884e-05    	2.8915924e-08
6.17226e-05    	2.8911990e-08
6.21567e-05    	2.8907496e-08
6.25908e-05    	2.8902764e-08
6.30249e-05    	2.8898178e-08
6.34591e-05    	2.8894200e-08
6.38932e-05    	2.8891337e-08
6.43273e-05    	2.8890185e-08
6.47615e-05    	2.8891462e-08
6.51956e-05    	2.8895989e-08
6.56297e-05    	2.8904688e-08
6.60638e-05    	2.8918626e-08
6.6498e-05     	2.8938990e-08
6.69321e-05    	2.8967059e-08
6.73662e-05    	2.9004104e-08
6.78003e-05    	2.9051196e-08
6.82345e-05    	2.9109323e-08
6.86686e-05    	2.9179605e-08
6.91027e-05    	2.9263180e-08
6.95368e-05    	2.9360794e-08
6.9971e-05     	2.9473281e-08
7.04051e-05    	2.9600926e-08
7.08392e-05    	2.9743710e-08
7.12733e-05    	2.9901453e-08
7.17075e-05    	3.0073998e-08
7.21416e-05    	3.0261355e-08
7.25757e-05    	3.0462721e-08
7.30099e-05    	3.0676956e-08
7.3444e-05     	3.0902892e-08
7.38781e-05    	3.1139562e-08
7.43122e-05    	3.1386034e-08
7.47464e-05    	3.1641095e-08
7.51805e-05    	3.1903445e-08
7.56146e-05    	3.2171696e-08
7.60487e-05    	3.2444731e-08
7.64829e-05    	3.2721474e-08
7.6917e-05     	3.3000741e-08
7.73511e-05    	3.3281347e-08
7.77852e-05    	3.3562231e-08
7.82194e-05    	3.3842417e-08
7.86535e-05    	3.4120973e-08
7.90876e-05    	3.4396967e-08
7.95217e-05    	3.4669606e-08
7.99559e-05    	3.4938465e-08
8.039e-05      	3.5202438e-08
8.08241e-05    	3.5459791e-08
8.12583e-05    	3.5711752e-08
8.16924e-05    	3.5958733e-08
8.21265e-05    	3.6199272e-08
8.25606e-05    	3.6432401e-08
8.29948e-05    	3.6657669e-08
8.34289e-05    	3.6874812e-08
8.3863e-05     	3.7083470e-08
8.42971e-05    	3.7283370e-08
8.47313e-05    	3.7474357e-08
8.51654e-05    	3.7656316e-08
8.55995e-05    	3.7829078e-08
8.60336e-05    	3.7992351e-08
8.64678e-05    	3.8146228e-08
8.69019e-05    	3.8291162e-08
8.7336e-05     	3.8427833e-08
8.77702e-05    	3.8556827e-08
8.82043e-05    	3.8678713e-08
8.86384e-05    	3.8794129e-08
8.90725e-05    	3.8903761e-08
8.95067e-05    	3.9008330e-08
8.99408e-05    	3.9108582e-08
9.03749e-05    	3.9205312e-08
9.0809e-05     	3.9299404e-08
9.12432e-05    	3.9391735e-08
9.16773e-05    	3.9483104e-08
9.21114e-05    	3.9574279e-08
9.25455e-05    	3.9666113e-08
9.29797e-05    	3.9759365e-08
9.34138e-05    	3.9854367e-08
9.38479e-05    	3.9951493e-08
9.4282e-05     	4.0051520e-08
9.47162e-05    	4.0154901e-08
9.51503e-05    	4.0261785e-08
9.55844e-05    	4.0372403e-08
9.60186e-05    	4.0487039e-08
9.64527e-05    	4.0605809e-08
9.68868e-05    	4.0728796e-08
9.73209e-05    	4.0855959e-08
9.77551e-05    	4.0987137e-08
9.81892e-05    	4.1122216e-08
9.86233e-05    	4.1261187e-08
9.90574e-05    	4.1403877e-08
9.94916e-05    	4.1550008e-08
9.99257e-05    	4.1699313e-08
0.00010036     	4.1851510e-08
0.000100794    	4.2006283e-08
0.000101228    	4.2163252e-08
0.000101662    	4.2322018e-08
0.000102096    	4.2482122e-08
0.00010253     	4.2643021e-08
0.000102965    	4.2804140e-08
0.000103399    	4.2965012e-08
0.000103833    	4.3125231e-08
0.000104267    	4.3284465e-08
0.000104701    	4.3442458e-08
0.000105135    	4.3599092e-08
0.000105569    	4.3754374e-08
0.000106003    	4.3908548e-08
0.000106438    	4.4062250e-08
0.000106872    	4.4216436e-08
0.000107306    	4.4372442e-08
0.00010774     	4.4532387e-08
0.000108174    	4.4699321e-08
0.000108608    	4.4876845e-08
0.000109042    	4.5069484e-08
0.000109476    	4.5283120e-08
0.000109911    	4.5525387e-08
0.000110345    	4.5807257e-08
0.000110779    	4.6143160e-08
0.000111213    	4.6548865e-08
0.000111647    	4.7045813e-08
0.000112081    	4.7665810e-08
0.000112515    	4.8447299e-08
0.000112949    	4.9427364e-08
0.000113384    	5.0650663e-08
0.000113818    	5.2180810e-08
0.000114252    	5.4092894e-08
0.000114686    	5.6503785e-08
0.00011512     	5.9563949e-08
0.000115554    	6.3454467e-08
0.000115988    	6.8391991e-08
0.000116422    	7.4642815e-08
0.000116857    	8.2534809e-08
0.000117291    	9.2482417e-08
0.000117725    	1.0499676e-07
0.000118159    	1.2068542e-07
0.000118593    	1.4026398e-07
0.000119027    	1.6458690e-07
0.000119461    	1.9464556e-07
0.000119896    	2.3155412e-07
0.00012033     	2.7654191e-07
0.000120764    	3.3093526e-07
0.000121198    	3.9612190e-07
0.000121632    	4.7351036e-07
0.000122066    	5.6448854e-07
0.0001225      	6.7036903e-07
0.000122934    	7.9234845e-07
0.000123369    	9.3147144e-07
0.000123803    	1.0886001e-06
0.000124237    	1.2643819e-06
0.000124671    	1.4592474e-06
0.000125105    	1.6734201e-06
0.000125539    	1.9068968e-06
0.000125973    	2.1594715e-06
0.000126407    	2.4307299e-06
0.000126842    	2.7200406e-06
0.000127276    	3.0265770e-06
0.00012771     	3.3493410e-06
0.000128144    	3.6873100e-06
0.000128578    	4.0392508e-06
0.000129012    	4.4037526e-06
0.000129446    	4.7793054e-06
0.00012988     	5.1643354e-06
0.000130315    	5.5571977e-06
0.000130749    	5.9561829e-06
0.000131183    	6.3595657e-06
0.000131617    	6.7656697e-06
0.000132051    	7.1727187e-06
0.000132485    	7.5789973e-06
0.000132919    	7.9828546e-06
0.000133353    	8.3826612e-06
0.000133788    	8.7768042e-06
0.000134222    	9.1637535e-06
0.000134656    	9.5419677e-06
0.00013509     	9.9098178e-06
0.000135524    	1.0265789e-05
0.000135958    	1.0608950e-05
0.000136392    	1.0938035e-05
0.000136826    	1.1251963e-05
0.000137261    	1.1549902e-05
0.000137695    	1.1831291e-05
0.000138129    	1.2095939e-05
0.000138563    	1.2343913e-05
0.000138997    	1.2575082e-05
0.000139431    	1.2789660e-05
0.000139865    	1.2987742e-05
0.000140299    	1.3169611e-05
0.000140734    	1.3335787e-05
0.000141168    	1.3486669e-05
0.000141602    	1.3623062e-05
0.000142036    	1.3746240e-05
0.00014247     	1.3857484e-05
0.000142904    	1.3958319e-05
0.000143338    	1.4050585e-05
0.000143772    	1.4136336e-05
0.000144207    	1.4217776e-05
0.000144641    	1.4297101e-05
0.000145075    	1.4376444e-05
0.000145509    	1.4457990e-05
0.000145943    	1.4543984e-05
0.000146377    	1.4636712e-05
0.000146811    	1.4738695e-05
0.000147245    	1.4852747e-05
0.00014768     	1.4982256e-05
0.000148114    	1.5131126e-05
0.000148548    	1.5303231e-05
0.000148982    	1.5501439e-05
0.000149416    	1.5726868e-05
0.00014985     	1.5980747e-05
0.000150284    	1.6265090e-05
0.000150718    	1.6580237e-05
0.000151153    	1.6925236e-05
0.000151587    	1.7298554e-05
0.000152021    	1.7698091e-05
0.000152455    	1.8121438e-05
0.000152889    	1.8565856e-05
0.000153323    	1.9028418e-05
0.000153757    	1.9505997e-05
0.000154191    	1.9994986e-05
0.000154626    	2.0491594e-05
0.00015506     	2.0992157e-05
0.000155494    	2.1493331e-05
0.000155928    	2.1991753e-05
0.000156362    	2.2484133e-05
0.000156796    	2.2967548e-05
0.00015723     	2.3439330e-05
0.000157665    	2.3896846e-05
0.000158099    	2.4337749e-05
0.000158533    	2.4760324e-05
0.000158967    	2.5163434e-05
0.000159401    	2.5546164e-05
0.000159835    	2.5907321e-05
0.000160269    	2.6245851e-05
0.000160703    	2.6560800e-05
0.000161138    	2.6851998e-05
0.000161572    	2.7119783e-05
0.000162006    	2.7364026e-05
0.00016244     	2.7584663e-05
0.000162874    	2.7781973e-05
0.000163308    	2.7957146e-05
0.000163742    	2.8111903e-05
0.000164176    	2.8247993e-05
0.000164611    	2.8366866e-05
0.000165045    	2.8470272e-05
0.000165479    	2.8560269e-05
0.000165913    	2.8639023e-05
0.000166347    	2.8708857e-05
0.000166781    	2.8772094e-05
0.000167215    	2.8830977e-05
0.000167649    	2.8887678e-05
0.000168084    	2.8944301e-05
0.000168518    	2.9002972e-05
0.000168952    	2.9065886e-05
0.000169386    	2.9135444e-05
0.00016982     	2.9214152e-05
0.000170254    	2.9304224e-05
0.000170688    	2.9407568e-05
0.000171122    	2.9526262e-05
0.000171557    	2.9662743e-05
0.000171991    	2.9819850e-05
0.000172425    	3.0000609e-05
0.000172859    	3.0207919e-05
0.000173293    	3.0444111e-05
0.000173727    	3.0710556e-05
0.000174161    	3.1007713e-05
0.000174595    	3.1335265e-05
0.00017503     	3.1691925e-05
0.000175464    	3.2076416e-05
0.000175898    	3.2488107e-05
0.000176332    	3.2926650e-05
0.000176766    	3.3391059e-05
0.0001772      	3.3880225e-05
0.000177634    	3.4393363e-05
0.000178068    	3.4929816e-05
0.000178503    	3.5488521e-05
0.000178937    	3.6068198e-05
0.000179371    	3.6667426e-05
0.000179805    	3.7284753e-05
0.000180239    	3.7918504e-05
0.000180673    	3.8566774e-05
0.000181107    	3.9227400e-05
0.000181541    	3.9897997e-05
0.000181976    	4.0575977e-05
0.00018241     	4.1258602e-05
0.000182844    	4.1943058e-05
0.000183278    	4.2626406e-05
0.000183712    	4.3305674e-05
0.000184146    	4.3977932e-05
0.00018458     	4.4640200e-05
0.000185014    	4.5289586e-05
0.000185449    	4.5923209e-05
0.000185883    	4.6538521e-05
0.000186317    	4.7133146e-05
0.000186751    	4.7704949e-05
0.000187185    	4.8252450e-05
0.000187619    	4.8774240e-05
0.000188053    	4.9269445e-05
0.000188487    	4.9737628e-05
0.000188922    	5.0178528e-05
0.000189356    	5.0592017e-05
0.00018979     	5.0977720e-05
0.000190224    	5.1336442e-05
0.000190658    	5.1669221e-05
0.000191092    	5.1976861e-05
0.000191526    	5.2260671e-05
0.00019196     	5.2522365e-05
0.000192395    	5.2763875e-05
0.000192829    	5.2986973e-05
0.000193263    	5.3193967e-05
0.000193697    	5.3387060e-05
0.000194131    	5.3568524e-05
0.000194565    	5.3740799e-05
0.000194999    	5.3905937e-05
0.000195434    	5.4065914e-05
0.000195868    	5.4222974e-05
0.000196302    	5.4379402e-05
0.000196736    	5.4537437e-05
0.00019717     	5.4699564e-05
0.000197604    	5.4868563e-05
0.000198038    	5.5047169e-05
0.000198472    	5.5238220e-05
0.000198907    	5.5445156e-05
0.000199341    	5.5671375e-05
0.000199775    	5.5920235e-05
0.000200209    	5.6195413e-05
0.000200643    	5.6501090e-05
0.000201077    	5.6841765e-05
0.000201511    	5.7221822e-05
0.000201945    	5.7645296e-05
0.00020238     	5.8114712e-05
0.000202814    	5.8630340e-05
0.000203248    	5.9190500e-05
0.000203682    	5.9792173e-05
0.000204116    	6.0431943e-05
0.00020455     	6.1105849e-05
0.000204984    	6.1809286e-05
0.000205418    	6.2537323e-05
0.000205853    	6.3284762e-05
0.000206287    	6.4046103e-05
0.000206721    	6.4816069e-05
0.000207155    	6.5589474e-05
0.000207589    	6.6361562e-05
0.000208023    	6.7128150e-05
0.000208457    	6.7885769e-05
0.000208891    	6.8631717e-05
0.000209326    	6.9364075e-05
0.00020976     	7.0081558e-05
0.000210194    	7.0783536e-05
0.000210628    	7.1469940e-05
0.000211062    	7.2141162e-05
0.000211496    	7.2798079e-05
0.00021193     	7.3441916e-05
0.000212364    	7.4074062e-05
0.000212799    	7.4695930e-05
0.000213233    	7.5308746e-05
0.000213667    	7.5913604e-05
0.000214101    	7.6511477e-05
0.000214535    	7.7103096e-05
0.000214969    	7.7688914e-05
0.000215403    	7.8269089e-05
0.000215837    	7.8843642e-05
0.000216272    	7.9412471e-05
0.000216706    	7.9975365e-05
0.00021714     	8.0532066e-05
0.000217574    	8.1082324e-05
0.000218008    	8.1626069e-05
0.000218442    	8.2163306e-05
0.000218876    	8.2694145e-05
0.00021931     	8.3218913e-05
0.000219745    	8.3738180e-05
0.000220179    	8.4252809e-05
0.000220613    	8.4763842e-05
0.000221047    	8.5272449e-05
0.000221481    	8.5780078e-05
0.000221915    	8.6288394e-05
0.000222349    	8.6799194e-05
0.000222783    	8.7314251e-05
0.000223218    	8.7835203e-05
0.000223652    	8.8363485e-05
0.000224086    	8.8900285e-05
0.00022452     	8.9446470e-05
0.000224954    	9.0002551e-05
0.000225388    	9.0568738e-05
0.000225822    	9.1144797e-05
0.000226256    	9.1730017e-05
0.000226691    	9.2323466e-05
0.000227125    	9.2924157e-05
0.000227559    	9.3531015e-05
0.000227993    	9.4143151e-05
0.000228427    	9.4759779e-05
0.000228861    	9.5380171e-05
0.000229295    	9.6003853e-05
0.000229729    	9.6630427e-05
0.000230164    	9.7259638e-05
0.000230598    	9.7891749e-05
0.000231032    	9.8527396e-05
0.000231466    	9.9167257e-05
0.0002319      	9.9812035e-05
0.000232334    	1.0046238e-04
0.000232768    	1.0111881e-04
0.000233203    	1.0178152e-04
0.000233637    	1.0245045e-04
0.000234071    	1.0312521e-04
0.000234505    	1.0380502e-04
0.000234939    	1.0448856e-04
0.000235373    	1.0517389e-04
0.000235807    	1.0585872e-04
0.000236241    	1.0654045e-04
0.000236676    	1.0721614e-04
0.00023711     	1.0788268e-04
0.000237544    	1.0853686e-04
0.000237978    	1.0917584e-04
0.000238412    	1.0979692e-04
0.000238846    	1.1039749e-04
0.00023928     	1.1097585e-04
0.000239714    	1.1153140e-04
0.000240149    	1.1206489e-04
0.000240583    	1.1257857e-04
0.000241017    	1.1307489e-04
0.000241451    	1.1355657e-04
0.000241885    	1.1402678e-04
0.000242319    	1.1448943e-04
0.000242753    	1.1494861e-04
0.000243187    	1.1540866e-04
0.000243622    	1.1587414e-04
0.000244056    	1.1634945e-04
0.00024449     	1.1683870e-04
0.000244924    	1.1734560e-04
0.000245358    	1.1787348e-04
0.000245792    	1.1842538e-04
0.000246226    	1.1900407e-04
0.00024666     	1.1961184e-04
0.000247095    	1.2024995e-04
0.000247529    	1.2091878e-04
0.000247963    	1.2161749e-04
0.000248397    	1.2234411e-04
0.000248831    	1.2309522e-04
0.000249265    	1.2386603e-04
0.000249699    	1.2465088e-04
0.000250133    	1.2544357e-04
0.000250568    	1.2623774e-04
0.000251002    	1.2702727e-04
0.000251436    	1.2780623e-04
0.00025187     	1.2856880e-04
0.000252304    	1.2930995e-04
0.000252738    	1.3002585e-04
0.000253172    	1.3071388e-04
0.000253606    	1.3137154e-04
0.000254041    	1.3199560e-04
0.000254475    	1.3258394e-04
0.000254909    	1.3313799e-04
0.000255343    	1.3366191e-04
0.000255777    	1.3415795e-04
0.000256211    	1.3462632e-04
0.000256645    	1.3506793e-04
0.000257079    	1.3548523e-04
0.000257514    	1.3588124e-04
0.000257948    	1.3625879e-04
0.000258382    	1.3662034e-04
0.000258816    	1.3696813e-04
0.00025925     	1.3730455e-04
0.000259684    	1.3763235e-04
0.000260118    	1.3795452e-04
0.000260552    	1.3827415e-04
0.000260987    	1.3859452e-04
0.000261421    	1.3891898e-04
0.000261855    	1.3925085e-04
0.000262289    	1.3959339e-04
0.000262723    	1.3994969e-04
0.000263157    	1.4032269e-04
0.000263591    	1.4071516e-04
0.000264025    	1.4112955e-04
0.00026446     	1.4156780e-04
0.000264894    	1.4203124e-04
0.000265328    	1.4252036e-04
0.000265762    	1.4303544e-04
0.000266196    	1.4357615e-04
0.00026663     	1.4414110e-04
0.000267064    	1.4472870e-04
0.000267498    	1.4533700e-04
0.000267933    	1.4596350e-04
0.000268367    	1.4660493e-04
0.000268801    	1.4725790e-04
0.000269235    	1.4791911e-04
0.000269669    	1.4858519e-04
0.000270103    	1.4925298e-04
0.000270537    	1.4991957e-04
0.000270972    	1.5058209e-04
0.000271406    	1.5123779e-04
0.00027184     	1.5188434e-04
0.000272274    	1.5252003e-04
0.000272708    	1.5314344e-04
0.000273142    	1.5375344e-04
0.000273576    	1.5434922e-04
0.00027401     	1.5493050e-04
0.000274445    	1.5549748e-04
0.000274879    	1.5605048e-04
0.000275313    	1.5658994e-04
0.000275747    	1.5711623e-04
0.000276181    	1.5762969e-04
0.000276615    	1.5813074e-04
0.000277049    	1.5861996e-04
0.000277483    	1.5909801e-04
0.000277918    	1.5956561e-04
0.000278352    	1.6002326e-04
0.000278786    	1.6047120e-04
0.00027922     	1.6090937e-04
0.000279654    	1.6133789e-04
0.000280088    	1.6175696e-04
0.000280522    	1.6216672e-04
0.000280956    	1.6256735e-04
0.000281391    	1.6295913e-04
0.000281825    	1.6334260e-04
0.000282259    	1.6371830e-04
0.000282693    	1.6408692e-04
0.000283127    	1.6444934e-04
0.000283561    	1.6480653e-04
0.000283995    	1.6515953e-04
0.000284429    	1.6550953e-04
0.000284864    	1.6585775e-04
0.000285298    	1.6620545e-04
0.000285732    	1.6655389e-04
0.000286166    	1.6690438e-04
0.0002866      	1.6725823e-04
0.000287034    	1.6761672e-04
0.000287468    	1.6798104e-04
0.000287902    	1.6835219e-04
0.000288337    	1.6873091e-04
0.000288771    	1.6911782e-04
0.000289205    	1.6951340e-04
0.000289639    	1.6991780e-04
0.000290073    	1.7033092e-04
0.000290507    	1.7075247e-04
0.000290941    	1.7118179e-04
0.000291375    	1.7161803e-04
0.00029181     	1.7206032e-04
0.000292244    	1.7250780e-04
0.000292678    	1.7295944e-04
0.000293112    	1.7341429e-04
0.000293546    	1.7387168e-04
0.00029398     	1.7433099e-04
0.000294414    	1.7479184e-04
0.000294848    	1.7525424e-04
0.000295283    	1.7571854e-04
0.000295717    	1.7618532e-04
0.000296151    	1.7665534e-04
0.000296585    	1.7712961e-04
0.000297019    	1.7760886e-04
0.000297453    	1.7809383e-04
0.000297887    	1.7858527e-04
0.000298321    	1.7908382e-04
0.000298756    	1.7958991e-04
0.00029919     	1.8010361e-04
0.000299624    	1.8062460e-04
0.000300058    	1.8115217e-04
0.000300492    	1.8168521e-04
0.000300926    	1.8222239e-04
0.00030136     	1.8276214e-04
0.000301794    	1.8330267e-04
0.000302228    	1.8384204e-04
0.000302663    	1.8437816e-04
0.000303097    	1.8490892e-04
0.000303531    	1.8543223e-04
0.000303965    	1.8594628e-04
0.000304399    	1.8644943e-04
0.000304833    	1.8694036e-04
0.000305267    	1.8741811e-04
0.000305701    	1.8788189e-04
0.000306135    	1.8833117e-04
0.000306569    	1.8876576e-04
0.000307004    	1.8918593e-04
0.000307438    	1.8959217e-04
0.000307872    	1.8998512e-04
0.000308306    	1.9036554e-04
0.00030874     	1.9073434e-04
0.000309174    	1.9109241e-04
0.000309608    	1.9144056e-04
0.000310042    	1.9177974e-04
0.000310476    	1.9211080e-04
0.00031091     	1.9243456e-04
0.000311344    	1.9275183e-04
0.000311778    	1.9306330e-04
0.000312213    	1.9336953e-04
0.000312647    	1.9367113e-04
0.000313081    	1.9396868e-04
0.000313515    	1.9426261e-04
0.000313949    	1.9455326e-04
0.000314383    	1.9484089e-04
0.000314817    	1.9512555e-04
0.000315251    	1.9540738e-04
0.000315685    	1.9568650e-04
0.000316119    	1.9596287e-04
0.000316553    	1.9623640e-04
0.000316987    	1.9650702e-04
0.000317421    	1.9677458e-04
0.000317855    	1.9703890e-04
0.000318289    	1.9730003e-04
0.000318723    	1.9755810e-04
0.000319157    	1.9781323e-04
0.000319591    	1.9806565e-04
0.000320025    	1.9831568e-04
0.000320459    	1.9856367e-04
0.000320893    	1.9881002e-04
0.000321327    	1.9905530e-04
0.000321761    	1.9929997e-04
0.000322196    	1.9954442e-04
0.00032263     	1.9978903e-04
0.000323064    	2.0003414e-04
0.000323498    	2.0028002e-04
0.000323932    	2.0052698e-04
0.000324366    	2.0077518e-04
0.0003248      	2.0102468e-04
0.000325234    	2.0127544e-04
0.000325668    	2.0152745e-04
0.000326102    	2.0178063e-04
0.000326536    	2.0203495e-04
0.000326969    	2.0229039e-04
0.000327403    	2.0254685e-04
0.000327837    	2.0280430e-04
0.000328271    	2.0306275e-04
0.000328705    	2.0332226e-04
0.000329139    	2.0358291e-04
0.000329573    	2.0384480e-04
0.000330007    	2.0410785e-04
0.000330441    	2.0437190e-04
0.000330875    	2.0463669e-04
0.000331309    	2.0490196e-04
0.000331743    	2.0516706e-04
0.000332177    	2.0543116e-04
0.000332611    	2.0569326e-04
0.000333045    	2.0595212e-04
0.000333479    	2.0620641e-04
0.000333913    	2.0645465e-04
0.000334347    	2.0669543e-04
0.000334781    	2.0692733e-04
0.000335215    	2.0714893e-04
0.000335649    	2.0735908e-04
0.000336083    	2.0755704e-04
0.000336517    	2.0774254e-04
0.00033695     	2.0791568e-04
0.000337384    	2.0807688e-04
0.000337818    	2.0822686e-04
0.000338252    	2.0836670e-04
0.000338686    	2.0849783e-04
0.00033912     	2.0862187e-04
0.000339554    	2.0874056e-04
0.000339988    	2.0885582e-04
0.000340422    	2.0896978e-04
0.000340856    	2.0908453e-04
0.00034129     	2.0920214e-04
0.000341723    	2.0932446e-04
0.000342157    	2.0945321e-04
0.000342591    	2.0959040e-04
0.000343025    	2.0973816e-04
0.000343459    	2.0989857e-04
0.000343893    	2.1007337e-04
0.000344327    	2.1026376e-04
0.000344761    	2.1047032e-04
0.000345194    	2.1069309e-04
0.000345628    	2.1093155e-04
0.000346062    	2.1118480e-04
0.000346496    	2.1145162e-04
0.00034693     	2.1173041e-04
0.000347364    	2.1201928e-04
0.000347798    	2.1231619e-04
0.000348231    	2.1261896e-04
0.000348665    	2.1292555e-04
0.000349099    	2.1323409e-04
0.000349533    	2.1354272e-04
0.000349967    	2.1384969e-04
0.000350401    	2.1415354e-04
0.000350834    	2.1445299e-04
0.000351268    	2.1474697e-04
0.000351702    	2.1503473e-04
0.000352136    	2.1531573e-04
0.00035257     	2.1558961e-04
0.000353003    	2.1585612e-04
0.000353437    	2.1611514e-04
0.000353871    	2.1636661e-04
0.000354305    	2.1661066e-04
0.000354739    	2.1684740e-04
0.000355172    	2.1707694e-04
0.000355606    	2.1729939e-04
0.00035604     	2.1751492e-04
0.000356474    	2.1772372e-04
0.000356907    	2.1792597e-04
0.000357341    	2.1812194e-04
0.000357775    	2.1831201e-04
0.000358209    	2.1849666e-04
0.000358642    	2.1867637e-04
0.000359076    	2.1885162e-04
0.00035951     	2.1902295e-04
0.000359944    	2.1919093e-04
0.000360377    	2.1935617e-04
0.000360811    	2.1951915e-04
0.000361245    	2.1968033e-04
0.000361679    	2.1984017e-04
0.000362112    	2.1999901e-04
0.000362546    	2.2015712e-04
0.00036298     	2.2031464e-04
0.000363414    	2.2047154e-04
0.000363847    	2.2062768e-04
0.000364281    	2.2078275e-04
0.000364715    	2.2093626e-04
0.000365148    	2.2108754e-04
0.000365582    	2.2123564e-04
0.000366016    	2.2137938e-04
0.000366449    	2.2151748e-04
0.000366883    	2.2164872e-04
0.000367317    	2.2177203e-04
0.00036775     	2.2188642e-04
0.000368184    	2.2199098e-04
0.000368618    	2.2208493e-04
0.000369051    	2.2216760e-04
0.000369485    	2.2223854e-04
0.000369919    	2.2229738e-04
0.000370352    	2.2234393e-04
0.000370786    	2.2237813e-04
0.00037122     	2.2240019e-04
0.000371653    	2.2241082e-04
0.000372087    	2.2241118e-04
0.000372521    	2.2240282e-04
0.000372954    	2.2238766e-04
0.000373388    	2.2236770e-04
0.000373821    	2.2234499e-04
0.000374255    	2.2232156e-04
0.000374689    	2.2229939e-04
0.000375122    	2.2228042e-04
0.000375556    	2.2226664e-04
0.000375989    	2.2226005e-04
0.000376423    	2.2226273e-04
0.000376857    	2.2227660e-04
0.00037729     	2.2230332e-04
0.000377724    	2.2234421e-04
0.000378157    	2.2240017e-04
0.000378591    	2.2247143e-04
0.000379024    	2.2255787e-04
0.000379458    	2.2265927e-04
0.000379892    	2.2277506e-04
0.000380325    	2.2290435e-04
0.000380759    	2.2304590e-04
0.000381192    	2.2319810e-04
0.000381626    	2.2335894e-04
0.000382059    	2.2352612e-04
0.000382493    	2.2369689e-04
0.000382926    	2.2386820e-04
0.00038336     	2.2403691e-04
0.000383793    	2.2420005e-04
0.000384227    	2.2435492e-04
0.00038466     	2.2449927e-04
0.000385094    	2.2463136e-04
0.000385527    	2.2475015e-04
0.000385961    	2.2485522e-04
0.000386394    	2.2494654e-04
0.000386828    	2.2502443e-04
0.000387261    	2.2508939e-04
0.000387695    	2.2514209e-04
0.000388128    	2.2518320e-04
0.000388561    	2.2521334e-04
0.000388995    	2.2523318e-04
0.000389428    	2.2524332e-04
0.000389862    	2.2524420e-04
0.000390295    	2.2523632e-04
0.000390729    	2.2522035e-04
0.000391162    	2.2519719e-04
0.000391595    	2.2516779e-04
0.000392029    	2.2513285e-04
0.000392462    	2.2509283e-04
0.000392896    	2.2504801e-04
0.000393329    	2.2499826e-04
0.000393762    	2.2494320e-04
0.000394196    	2.2488239e-04
0.000394629    	2.2481519e-04
0.000395062    	2.2474128e-04
0.000395496    	2.2466071e-04
0.000395929    	2.2457379e-04
0.000396362    	2.2448094e-04
0.000396796    	2.2438280e-04
0.000397229    	2.2428012e-04
0.000397662    	2.2417374e-04
0.000398096    	2.2406437e-04
0.000398529    	2.2395285e-04
0.000398962    	2.2384019e-04
0.000399396    	2.2372744e-04
0.000399829    	2.2361581e-04
0.000400262    	2.2350658e-04
0.000400696    	2.2340108e-04
0.000401129    	2.2330086e-04
0.000401562    	2.2320765e-04
0.000401995    	2.2312304e-04
0.000402429    	2.2304827e-04
0.000402862    	2.2298397e-04
0.000403295    	2.2293066e-04
0.000403728    	2.2288866e-04
0.000404162    	2.2285805e-04
0.000404595    	2.2283887e-04
0.000405028    	2.2283116e-04
0.000405461    	2.2283518e-04
0.000405894    	2.2285149e-04
0.000406328    	2.2288080e-04
0.000406761    	2.2292391e-04
0.000407194    	2.2298190e-04
0.000407627    	2.2305566e-04
0.00040806     	2.2314550e-04
0.000408493    	2.2325123e-04
0.000408927    	2.2337197e-04
0.00040936     	2.2350615e-04
0.000409793    	2.2365175e-04
0.000410226    	2.2380639e-04
0.000410659    	2.2396744e-04
0.000411092    	2.2413213e-04
0.000411525    	2.2429748e-04
0.000411959    	2.2446022e-04
0.000412392    	2.2461662e-04
0.000412825    	2.2476295e-04
0.000413258    	2.2489597e-04
0.000413691    	2.2501328e-04
0.000414124    	2.2511355e-04
0.000414557    	2.2519611e-04
0.00041499     	2.2526057e-04
0.000415423    	2.2530662e-04
0.000415856    	2.2533422e-04
0.000416289    	2.2534350e-04
0.000416722    	2.2533450e-04
0.000417155    	2.2530685e-04
0.000417588    	2.2526005e-04
0.000418021    	2.2519320e-04
0.000418454    	2.2510580e-04
0.000418887    	2.2499829e-04
0.00041932     	2.2487254e-04
0.000419753    	2.2473137e-04
0.000420186    	2.2457849e-04
0.000420619    	2.2441800e-04
0.000421052    	2.2425365e-04
0.000421485    	2.2408862e-04
0.000421918    	2.2392534e-04
0.000422351    	2.2376564e-04
0.000422784    	2.2361103e-04
0.000423217    	2.2346277e-04
0.00042365     	2.2332204e-04
0.000424083    	2.2319002e-04
0.000424515    	2.2306759e-04
0.000424948    	2.2295512e-04
0.000425381    	2.2285235e-04
0.000425814    	2.2275882e-04
0.000426247    	2.2267372e-04
0.00042668     	2.2259594e-04
0.000427113    	2.2252430e-04
0.000427546    	2.2245758e-04
0.000427978    	2.2239465e-04
0.000428411    	2.2233448e-04
0.000428844    	2.2227619e-04
0.000429277    	2.2221917e-04
0.00042971     	2.2216298e-04
0.000430143    	2.2210749e-04
0.000430575    	2.2205274e-04
0.000431008    	2.2199874e-04
0.000431441    	2.2194563e-04
0.000431874    	2.2189356e-04