# Region type : patch inlet
# Faces  :     778
# Area   :     6.2874094e-05
# Time         	sum(phi)
0              	0.0000000e+00
5.1074e-07     	-1.8280595e-03
9.44866e-07    	-2.1622034e-03
1.37899e-06    	-2.1947444e-03
1.81312e-06    	-2.1251194e-03
2.24725e-06    	-2.0216591e-03
2.68137e-06    	-1.9346277e-03
3.1155e-06     	-1.8861506e-03
3.54962e-06    	-1.8702600e-03
3.98375e-06    	-1.8678851e-03
4.41788e-06    	-1.8713452e-03
4.852e-06      	-1.8745979e-03
5.28613e-06    	-1.8762521e-03
5.72026e-06    	-1.8775086e-03
6.15438e-06    	-1.8796830e-03
6.58851e-06    	-1.8839491e-03
7.02264e-06    	-1.8918241e-03
7.45676e-06    	-1.9044168e-03
7.89089e-06    	-1.9222039e-03
8.32502e-06    	-1.9451741e-03
8.75914e-06    	-1.9723505e-03
9.19327e-06    	-2.0030483e-03
9.62739e-06    	-2.0366358e-03
1.00615e-05    	-2.0726234e-03
1.04956e-05    	-2.1105392e-03
1.09298e-05    	-2.1499188e-03
1.13639e-05    	-2.1902463e-03
1.1798e-05     	-2.2310874e-03
1.22322e-05    	-2.2721537e-03
1.26663e-05    	-2.3133784e-03
1.31004e-05    	-2.3547131e-03
1.35345e-05    	-2.3961305e-03
1.39687e-05    	-2.4377127e-03
1.44028e-05    	-2.4794961e-03
1.48369e-05    	-2.5215120e-03
1.5271e-05     	-2.5638113e-03
1.57052e-05    	-2.6063667e-03
1.61393e-05    	-2.6490674e-03
1.65734e-05    	-2.6919810e-03
1.70075e-05    	-2.7351615e-03
1.74417e-05    	-2.7785486e-03
1.78758e-05    	-2.8221925e-03
1.83099e-05    	-2.8661097e-03
1.8744e-05     	-2.9102669e-03
1.91782e-05    	-2.9547695e-03
1.96123e-05    	-2.9996124e-03
2.00464e-05    	-3.0447476e-03
2.04806e-05    	-3.0901748e-03
2.09147e-05    	-3.1357926e-03
2.13488e-05    	-3.1815228e-03
2.17829e-05    	-3.2272754e-03
2.22171e-05    	-3.2730067e-03
2.26512e-05    	-3.3186942e-03
2.30853e-05    	-3.3642582e-03
2.35194e-05    	-3.4096637e-03
2.39536e-05    	-3.4548296e-03
2.43877e-05    	-3.4997121e-03
2.48218e-05    	-3.5442856e-03
2.52559e-05    	-3.5885204e-03
2.56901e-05    	-3.6324274e-03
2.61242e-05    	-3.6759999e-03
2.65583e-05    	-3.7192241e-03
2.69925e-05    	-3.7620669e-03
2.74266e-05    	-3.8045204e-03
2.78607e-05    	-3.8465728e-03
2.82948e-05    	-3.8882095e-03
2.8729e-05     	-3.9294140e-03
2.91631e-05    	-3.9702037e-03
2.95972e-05    	-4.0105581e-03
3.00313e-05    	-4.0504349e-03
3.04655e-05    	-4.0897690e-03
3.08996e-05    	-4.1284588e-03
3.13337e-05    	-4.1664290e-03
3.17678e-05    	-4.2036959e-03
3.2202e-05     	-4.2403918e-03
3.26361e-05    	-4.2768685e-03
3.30702e-05    	-4.3136925e-03
3.35043e-05    	-4.3515840e-03
3.39385e-05    	-4.3913075e-03
3.43726e-05    	-4.4333721e-03
3.48067e-05    	-4.4778080e-03
3.52409e-05    	-4.5237445e-03
3.5675e-05     	-4.5682548e-03
3.61091e-05    	-4.6026755e-03
3.65432e-05    	-4.6198043e-03
3.69774e-05    	-4.6136626e-03
3.74115e-05    	-4.5800811e-03
3.78456e-05    	-4.5189352e-03
3.82797e-05    	-4.4335186e-03
3.87139e-05    	-4.3315346e-03
3.9148e-05     	-4.2227402e-03
3.95821e-05    	-4.1180648e-03
4.00162e-05    	-4.0306259e-03
4.04504e-05    	-3.9688868e-03
4.08845e-05    	-3.9355632e-03
4.13186e-05    	-3.9326854e-03
4.17528e-05    	-3.9580535e-03
4.21869e-05    	-4.0045767e-03
4.2621e-05     	-4.0676330e-03
4.30551e-05    	-4.1471357e-03
4.34893e-05    	-4.2403774e-03
4.39234e-05    	-4.3411209e-03
4.43575e-05    	-4.4430824e-03
4.47916e-05    	-4.5414070e-03
4.52258e-05    	-4.6321511e-03
4.56599e-05    	-4.7126015e-03
4.6094e-05     	-4.7815159e-03
4.65281e-05    	-4.8388224e-03
4.69623e-05    	-4.8850363e-03
4.73964e-05    	-4.9210935e-03
4.78305e-05    	-4.9479200e-03
4.82646e-05    	-4.9666384e-03
4.86988e-05    	-4.9785853e-03
4.91329e-05    	-4.9850135e-03
4.9567e-05     	-4.9869874e-03
5.00012e-05    	-4.9856074e-03
5.04353e-05    	-4.9819884e-03
5.08694e-05    	-4.9769353e-03
5.13035e-05    	-4.9712102e-03
5.17377e-05    	-4.9655339e-03
5.21718e-05    	-4.9606262e-03
5.26059e-05    	-4.9569622e-03
5.304e-05      	-4.9548744e-03
5.34742e-05    	-4.9546108e-03
5.39083e-05    	-4.9562272e-03
5.43424e-05    	-4.9597400e-03
5.47765e-05    	-4.9651057e-03
5.52107e-05    	-4.9722734e-03
5.56448e-05    	-4.9810882e-03
5.60789e-05    	-4.9913333e-03
5.6513e-05     	-5.0027543e-03
5.69472e-05    	-5.0150500e-03
5.73813e-05    	-5.0279520e-03
5.78154e-05    	-5.0412502e-03
5.82496e-05    	-5.0547955e-03
5.86837e-05    	-5.0684847e-03
5.91178e-05    	-5.0822463e-03
5.95519e-05    	-5.0960332e-03
5.99861e-05    	-5.1098095e-03
6.04202e-05    	-5.1235413e-03
6.08543e-05    	-5.1372079e-03
6.12884e-05    	-5.1508251e-03
6.17226e-05    	-5.1644299e-03
6.21567e-05    	-5.1780341e-03
6.25908e-05    	-5.1916692e-03
6.30249e-05    	-5.2053362e-03
6.34591e-05    	-5.2190461e-03
6.38932e-05    	-5.2327951e-03
6.43273e-05    	-5.2465793e-03
6.47615e-05    	-5.2603943e-03
6.51956e-05    	-5.2742275e-03
6.56297e-05    	-5.2880729e-03
6.60638e-05    	-5.3019351e-03
6.6498e-05     	-5.3158357e-03
6.69321e-05    	-5.3297892e-03
6.73662e-05    	-5.3438039e-03
6.78003e-05    	-5.3578632e-03
6.82345e-05    	-5.3718857e-03
6.86686e-05    	-5.3856902e-03
6.91027e-05    	-5.3989498e-03
6.95368e-05    	-5.4111068e-03
6.9971e-05     	-5.4213373e-03
7.04051e-05    	-5.4286059e-03
7.08392e-05    	-5.4321041e-03
7.12733e-05    	-5.4313831e-03
7.17075e-05    	-5.4258491e-03
7.21416e-05    	-5.4149879e-03
7.25757e-05    	-5.3985456e-03
7.30099e-05    	-5.3768753e-03
7.3444e-05     	-5.3512613e-03
7.38781e-05    	-5.3238166e-03
7.43122e-05    	-5.2970945e-03
7.47464e-05    	-5.2736379e-03
7.51805e-05    	-5.2560015e-03
7.56146e-05    	-5.2465233e-03
7.60487e-05    	-5.2456376e-03
7.64829e-05    	-5.2529122e-03
7.6917e-05     	-5.2674265e-03
7.73511e-05    	-5.2889572e-03
7.77852e-05    	-5.3174081e-03
7.82194e-05    	-5.3517990e-03
7.86535e-05    	-5.3897292e-03
7.90876e-05    	-5.4279585e-03
7.95217e-05    	-5.4633837e-03
7.99559e-05    	-5.4933920e-03
8.039e-05      	-5.5160710e-03
8.08241e-05    	-5.5308992e-03
8.12583e-05    	-5.5378596e-03
8.16924e-05    	-5.5373135e-03
8.21265e-05    	-5.5297384e-03
8.25606e-05    	-5.5161224e-03
8.29948e-05    	-5.4980750e-03
8.34289e-05    	-5.4776209e-03
8.3863e-05     	-5.4572026e-03
8.42971e-05    	-5.4391965e-03
8.47313e-05    	-5.4253507e-03
8.51654e-05    	-5.4166706e-03
8.55995e-05    	-5.4135340e-03
8.60336e-05    	-5.4158970e-03
8.64678e-05    	-5.4232963e-03
8.69019e-05    	-5.4352123e-03
8.7336e-05     	-5.4510227e-03
8.77702e-05    	-5.4700657e-03
8.82043e-05    	-5.4916229e-03
8.86384e-05    	-5.5147658e-03
8.90725e-05    	-5.5385150e-03
8.95067e-05    	-5.5620204e-03
8.99408e-05    	-5.5846370e-03
9.03749e-05    	-5.6059178e-03
9.0809e-05     	-5.6255508e-03
9.12432e-05    	-5.6433208e-03
9.16773e-05    	-5.6590586e-03
9.21114e-05    	-5.6725919e-03
9.25455e-05    	-5.6838128e-03
9.29797e-05    	-5.6926544e-03
9.34138e-05    	-5.6992588e-03
9.38479e-05    	-5.7038332e-03
9.4282e-05     	-5.7065714e-03
9.47162e-05    	-5.7076746e-03
9.51503e-05    	-5.7072393e-03
9.55844e-05    	-5.7054181e-03
9.60186e-05    	-5.7024774e-03
9.64527e-05    	-5.6987883e-03
9.68868e-05    	-5.6947028e-03
9.73209e-05    	-5.6905552e-03
9.77551e-05    	-5.6866383e-03
9.81892e-05    	-5.6832037e-03
9.86233e-05    	-5.6804587e-03
9.90574e-05    	-5.6785568e-03
9.94916e-05    	-5.6776181e-03
9.99257e-05    	-5.6776956e-03
0.00010036     	-5.6787777e-03
0.000100794    	-5.6807791e-03
0.000101228    	-5.6835482e-03
0.000101662    	-5.6869086e-03
0.000102096    	-5.6906363e-03
0.00010253     	-5.6944722e-03
0.000102965    	-5.6981157e-03
0.000103399    	-5.7012195e-03
0.000103833    	-5.7033953e-03
0.000104267    	-5.7042380e-03
0.000104701    	-5.7033208e-03
0.000105135    	-5.7004546e-03
0.000105569    	-5.6955471e-03
0.000106003    	-5.6883479e-03
0.000106438    	-5.6786355e-03
0.000106872    	-5.6664143e-03
0.000107306    	-5.6520849e-03
0.00010774     	-5.6364703e-03
0.000108174    	-5.6206475e-03
0.000108608    	-5.6058206e-03
0.000109042    	-5.5930603e-03
0.000109476    	-5.5834955e-03
0.000109911    	-5.5780626e-03
0.000110345    	-5.5772438e-03
0.000110779    	-5.5809803e-03
0.000111213    	-5.5891953e-03
0.000111647    	-5.6018575e-03
0.000112081    	-5.6188293e-03
0.000112515    	-5.6395446e-03
0.000112949    	-5.6628368e-03
0.000113384    	-5.6871370e-03
0.000113818    	-5.7107556e-03
0.000114252    	-5.7320969e-03
0.000114686    	-5.7497055e-03
0.00011512     	-5.7622862e-03
0.000115554    	-5.7694964e-03
0.000115988    	-5.7710981e-03
0.000116422    	-5.7667504e-03
0.000116857    	-5.7563524e-03
0.000117291    	-5.7403103e-03
0.000117725    	-5.7194980e-03
0.000118159    	-5.6952733e-03
0.000118593    	-5.6693521e-03
0.000119027    	-5.6436178e-03
0.000119461    	-5.6198051e-03
0.000119896    	-5.5991923e-03
0.00012033     	-5.5826148e-03
0.000120764    	-5.5704262e-03
0.000121198    	-5.5625867e-03
0.000121632    	-5.5585347e-03
0.000122066    	-5.5576591e-03
0.0001225      	-5.5595804e-03
0.000122934    	-5.5634121e-03
0.000123369    	-5.5682015e-03
0.000123803    	-5.5731476e-03
0.000124237    	-5.5774679e-03
0.000124671    	-5.5805458e-03
0.000125105    	-5.5819395e-03
0.000125539    	-5.5813701e-03
0.000125973    	-5.5787913e-03
0.000126407    	-5.5743263e-03
0.000126842    	-5.5682204e-03
0.000127276    	-5.5608076e-03
0.00012771     	-5.5525077e-03
0.000128144    	-5.5437531e-03
0.000128578    	-5.5350025e-03
0.000129012    	-5.5266798e-03
0.000129446    	-5.5191546e-03
0.00012988     	-5.5127588e-03
0.000130315    	-5.5077313e-03
0.000130749    	-5.5042162e-03
0.000131183    	-5.5022787e-03
0.000131617    	-5.5019007e-03
0.000132051    	-5.5030644e-03
0.000132485    	-5.5057416e-03
0.000132919    	-5.5098627e-03
0.000133353    	-5.5153265e-03
0.000133788    	-5.5219679e-03
0.000134222    	-5.5295747e-03
0.000134656    	-5.5378685e-03
0.00013509     	-5.5464898e-03
0.000135524    	-5.5550508e-03
0.000135958    	-5.5631480e-03
0.000136392    	-5.5703890e-03
0.000136826    	-5.5764081e-03
0.000137261    	-5.5808737e-03
0.000137695    	-5.5835204e-03
0.000138129    	-5.5841072e-03
0.000138563    	-5.5825209e-03
0.000138997    	-5.5787871e-03
0.000139431    	-5.5728684e-03
0.000139865    	-5.5647860e-03
0.000140299    	-5.5546988e-03
0.000140734    	-5.5429920e-03
0.000141168    	-5.5303136e-03
0.000141602    	-5.5174413e-03
0.000142036    	-5.5051612e-03
0.00014247     	-5.4942525e-03
0.000142904    	-5.4854113e-03
0.000143338    	-5.4791674e-03
0.000143772    	-5.4759339e-03
0.000144207    	-5.4759615e-03
0.000144641    	-5.4790531e-03
0.000145075    	-5.4849645e-03
0.000145509    	-5.4935447e-03
0.000145943    	-5.5046105e-03
0.000146377    	-5.5177769e-03
0.000146811    	-5.5324236e-03
0.000147245    	-5.5477104e-03
0.00014768     	-5.5627327e-03
0.000148114    	-5.5766215e-03
0.000148548    	-5.5885792e-03
0.000148982    	-5.5977463e-03
0.000149416    	-5.6032839e-03
0.00014985     	-5.6049585e-03
0.000150284    	-5.6027823e-03
0.000150718    	-5.5965683e-03
0.000151153    	-5.5860113e-03
0.000151587    	-5.5712140e-03
0.000152021    	-5.5530305e-03
0.000152455    	-5.5329617e-03
0.000152889    	-5.5127438e-03
0.000153323    	-5.4939923e-03
0.000153757    	-5.4780458e-03
0.000154191    	-5.4658477e-03
0.000154626    	-5.4579821e-03
0.00015506     	-5.4547984e-03
0.000155494    	-5.4563825e-03
0.000155928    	-5.4622549e-03
0.000156362    	-5.4718846e-03
0.000156796    	-5.4848286e-03
0.00015723     	-5.5005766e-03
0.000157665    	-5.5184866e-03
0.000158099    	-5.5377185e-03
0.000158533    	-5.5573090e-03
0.000158967    	-5.5762807e-03
0.000159401    	-5.5937295e-03
0.000159835    	-5.6089049e-03
0.000160269    	-5.6212193e-03
0.000160703    	-5.6303307e-03
0.000161138    	-5.6362842e-03
0.000161572    	-5.6391985e-03
0.000162006    	-5.6392373e-03
0.00016244     	-5.6366827e-03
0.000162874    	-5.6320759e-03
0.000163308    	-5.6261638e-03
0.000163742    	-5.6196811e-03
0.000164176    	-5.6132553e-03
0.000164611    	-5.6074181e-03
0.000165045    	-5.6025203e-03
0.000165479    	-5.5987851e-03
0.000165913    	-5.5962737e-03
0.000166347    	-5.5948754e-03
0.000166781    	-5.5943982e-03
0.000167215    	-5.5946565e-03
0.000167649    	-5.5954499e-03
0.000168084    	-5.5965290e-03
0.000168518    	-5.5976324e-03
0.000168952    	-5.5985048e-03
0.000169386    	-5.5988710e-03
0.00016982     	-5.5984533e-03
0.000170254    	-5.5970126e-03
0.000170688    	-5.5943220e-03
0.000171122    	-5.5902158e-03
0.000171557    	-5.5845825e-03
0.000171991    	-5.5773628e-03
0.000172425    	-5.5686283e-03
0.000172859    	-5.5585518e-03
0.000173293    	-5.5473775e-03
0.000173727    	-5.5353829e-03
0.000174161    	-5.5229810e-03
0.000174595    	-5.5105982e-03
0.00017503     	-5.4987136e-03
0.000175464    	-5.4878245e-03
0.000175898    	-5.4783822e-03
0.000176332    	-5.4707475e-03
0.000176766    	-5.4650975e-03
0.0001772      	-5.4615368e-03
0.000177634    	-5.4600398e-03
0.000178068    	-5.4605277e-03
0.000178503    	-5.4628854e-03
0.000178937    	-5.4669156e-03
0.000179371    	-5.4723412e-03
0.000179805    	-5.4787916e-03
0.000180239    	-5.4858219e-03
0.000180673    	-5.4929303e-03
0.000181107    	-5.4995545e-03
0.000181541    	-5.5051142e-03
0.000181976    	-5.5090513e-03
0.00018241     	-5.5108237e-03
0.000182844    	-5.5100580e-03
0.000183278    	-5.5063807e-03
0.000183712    	-5.4995081e-03
0.000184146    	-5.4891506e-03
0.00018458     	-5.4749696e-03
0.000185014    	-5.4568556e-03
0.000185449    	-5.4351354e-03
0.000185883    	-5.4104237e-03
0.000186317    	-5.3834489e-03
0.000186751    	-5.3553215e-03
0.000187185    	-5.3268876e-03
0.000187619    	-5.2989970e-03
0.000188053    	-5.2723282e-03
0.000188487    	-5.2472957e-03
0.000188922    	-5.2241852e-03
0.000189356    	-5.2029958e-03
0.00018979     	-5.1836209e-03
0.000190224    	-5.1657690e-03
0.000190658    	-5.1489110e-03
0.000191092    	-5.1324456e-03
0.000191526    	-5.1157182e-03
0.00019196     	-5.0980292e-03
0.000192395    	-5.0786169e-03
0.000192829    	-5.0567062e-03
0.000193263    	-5.0314469e-03
0.000193697    	-5.0020149e-03
0.000194131    	-4.9677090e-03
0.000194565    	-4.9281030e-03
0.000194999    	-4.8829189e-03
0.000195434    	-4.8322341e-03
0.000195868    	-4.7763051e-03
0.000196302    	-4.7158433e-03
0.000196736    	-4.6519060e-03
0.00019717     	-4.5855443e-03
0.000197604    	-4.5178835e-03
0.000198038    	-4.4499925e-03
0.000198472    	-4.3826814e-03
0.000198907    	-4.3166748e-03
0.000199341    	-4.2524250e-03
0.000199775    	-4.1904127e-03
0.000200209    	-4.1306574e-03
0.000200643    	-4.0730668e-03
0.000201077    	-4.0174536e-03
0.000201511    	-3.9633324e-03
0.000201945    	-3.9102693e-03
0.00020238     	-3.8577073e-03
0.000202814    	-3.8050769e-03
0.000203248    	-3.7518693e-03
0.000203682    	-3.6974727e-03
0.000204116    	-3.6416023e-03
0.00020455     	-3.5840876e-03
0.000204984    	-3.5246361e-03
0.000205418    	-3.4633509e-03
0.000205853    	-3.4003659e-03
0.000206287    	-3.3358191e-03
0.000206721    	-3.2704862e-03
0.000207155    	-3.2041289e-03
0.000207589    	-3.1382923e-03
0.000208023    	-3.0723949e-03
0.000208457    	-3.0073317e-03
0.000208891    	-2.9441294e-03
0.000209326    	-2.8813210e-03
0.00020976     	-2.8216189e-03
0.000210194    	-2.7624243e-03
0.000210628    	-2.7063427e-03
0.000211062    	-2.6511678e-03
0.000211496    	-2.5979012e-03
0.00021193     	-2.5456198e-03
0.000212364    	-2.4936621e-03
0.000212799    	-2.4424158e-03
0.000213233    	-2.3896887e-03
0.000213667    	-2.3370265e-03
0.000214101    	-2.2816839e-03
0.000214535    	-2.2255116e-03
0.000214969    	-2.1660247e-03
0.000215403    	-2.1046908e-03
0.000215837    	-2.0400317e-03
0.000216272    	-1.9730025e-03
0.000216706    	-1.9035205e-03
0.00021714     	-1.8314951e-03
0.000217574    	-1.7584879e-03
0.000218008    	-1.6837791e-03
0.000218442    	-1.6097770e-03
0.000218876    	-1.5354143e-03
0.00021931     	-1.4635960e-03
0.000219745    	-1.3929167e-03
0.000220179    	-1.3265347e-03
0.000220613    	-1.2628600e-03
0.000221047    	-1.2040117e-03
0.000221481    	-1.1493148e-03
0.000221915    	-1.0987987e-03
0.000222349    	-1.0525813e-03
0.000222783    	-1.0097179e-03
0.000223218    	-9.6987289e-04
0.000223652    	-9.3257918e-04
0.000224086    	-8.9673216e-04
0.00022452     	-8.6170207e-04
0.000224954    	-8.2696990e-04
0.000225388    	-7.9146875e-04
0.000225822    	-7.5489395e-04
0.000226256    	-7.1620521e-04
0.000226691    	-6.7540335e-04
0.000227125    	-6.3203069e-04
0.000227559    	-5.8663402e-04
0.000227993    	-5.3859128e-04
0.000228427    	-4.8884664e-04
0.000228861    	-4.3781334e-04
0.000229295    	-3.8610059e-04
0.000229729    	-3.3450606e-04
0.000230164    	-2.8344777e-04
0.000230598    	-2.3520960e-04
0.000231032    	-1.8739964e-04
0.000231466    	-1.4298573e-04
0.0002319      	-1.0069621e-04
0.000232334    	-6.1418252e-05
0.000232768    	-2.3988253e-05
0.000233203    	1.1059982e-05
0.000233637    	4.5114242e-05
0.000234071    	7.8056405e-05
0.000234505    	1.1089812e-04
0.000234939    	1.4419249e-04
0.000235373    	1.7818984e-04
0.000235807    	2.1363916e-04
0.000236241    	2.5126070e-04
0.000236676    	2.9048050e-04
0.00023711     	3.3272296e-04
0.000237544    	3.7615350e-04
0.000237978    	4.2234521e-04
0.000238412    	4.6900452e-04
0.000238846    	5.1730130e-04
0.00023928     	5.6459667e-04
0.000239714    	6.1194967e-04
0.000240149    	6.5681686e-04
0.000240583    	6.9999634e-04
0.000241017    	7.3976340e-04
0.000241451    	7.7567831e-04
0.000241885    	8.0844064e-04
0.000242319    	8.3610730e-04
0.000242753    	8.6077495e-04
0.000243187    	8.8099552e-04
0.000243622    	8.9842815e-04
0.000244056    	9.1288608e-04
0.00024449     	9.2488269e-04
0.000244924    	9.3518079e-04
0.000245358    	9.4401284e-04
0.000245792    	9.5256590e-04
0.000246226    	9.6100497e-04
0.00024666     	9.7054480e-04
0.000247095    	9.8113755e-04
0.000247529    	9.9359198e-04
0.000247963    	1.0080976e-03
0.000248397    	1.0252476e-03
0.000248831    	1.0444518e-03
0.000249265    	1.0662858e-03
0.000249699    	1.0904938e-03
0.000250133    	1.1161401e-03
0.000250568    	1.1437718e-03
0.000251002    	1.1714770e-03
0.000251436    	1.1999153e-03
0.00025187     	1.2279642e-03
0.000252304    	1.2547277e-03
0.000252738    	1.2811651e-03
0.000253172    	1.3049434e-03
0.000253606    	1.3278556e-03
0.000254041    	1.3477804e-03
0.000254475    	1.3661372e-03
0.000254909    	1.3827708e-03
0.000255343    	1.3967662e-03
0.000255777    	1.4104699e-03
0.000256211    	1.4217002e-03
0.000256645    	1.4334959e-03
0.000257079    	1.4444778e-03
0.000257514    	1.4560950e-03
0.000257948    	1.4681896e-03
0.000258382    	1.4814334e-03
0.000258816    	1.4958271e-03
0.00025925     	1.5122690e-03
0.000259684    	1.5293336e-03
0.000260118    	1.5483893e-03
0.000260552    	1.5677267e-03
0.000260987    	1.5877127e-03
0.000261421    	1.6077503e-03
0.000261855    	1.6266974e-03
0.000262289    	1.6452454e-03
0.000262723    	1.6612489e-03
0.000263157    	1.6756489e-03
0.000263591    	1.6875230e-03
0.000264025    	1.6966734e-03
0.00026446     	1.7032879e-03
0.000264894    	1.7071092e-03
0.000265328    	1.7088830e-03
0.000265762    	1.7083042e-03
0.000266196    	1.7061811e-03
0.00026663     	1.7030459e-03
0.000267064    	1.6989181e-03
0.000267498    	1.6954385e-03
0.000267933    	1.6917245e-03
0.000268367    	1.6895355e-03
0.000268801    	1.6886583e-03
0.000269235    	1.6891422e-03
0.000269669    	1.6925127e-03
0.000270103    	1.6972131e-03
0.000270537    	1.7046572e-03
0.000270972    	1.7139873e-03
0.000271406    	1.7247823e-03
0.00027184     	1.7376341e-03
0.000272274    	1.7510309e-03
0.000272708    	1.7653550e-03
0.000273142    	1.7801604e-03
0.000273576    	1.7945341e-03
0.00027401     	1.8085413e-03
0.000274445    	1.8219911e-03
0.000274879    	1.8341161e-03
0.000275313    	1.8456744e-03
0.000275747    	1.8562590e-03
0.000276181    	1.8657181e-03
0.000276615    	1.8755423e-03
0.000277049    	1.8845179e-03
0.000277483    	1.8940145e-03
0.000277918    	1.9046045e-03
0.000278352    	1.9158020e-03
0.000278786    	1.9287223e-03
0.00027922     	1.9437035e-03
0.000279654    	1.9600502e-03
0.000280088    	1.9790491e-03
0.000280522    	1.9998877e-03
0.000280956    	2.0227019e-03
0.000281391    	2.0469156e-03
0.000281825    	2.0723655e-03
0.000282259    	2.0985772e-03
0.000282693    	2.1245577e-03
0.000283127    	2.1505118e-03
0.000283561    	2.1751545e-03
0.000283995    	2.1986124e-03
0.000284429    	2.2197820e-03
0.000284864    	2.2390325e-03
0.000285298    	2.2553512e-03
0.000285732    	2.2690743e-03
0.000286166    	2.2796699e-03
0.0002866      	2.2874638e-03
0.000287034    	2.2921807e-03
0.000287468    	2.2941813e-03
0.000287902    	2.2936538e-03
0.000288337    	2.2909961e-03
0.000288771    	2.2866983e-03
0.000289205    	2.2812531e-03
0.000289639    	2.2751936e-03
0.000290073    	2.2690230e-03
0.000290507    	2.2632016e-03
0.000290941    	2.2580938e-03
0.000291375    	2.2543212e-03
0.00029181     	2.2523189e-03
0.000292244    	2.2521642e-03
0.000292678    	2.2540787e-03
0.000293112    	2.2580583e-03
0.000293546    	2.2640245e-03
0.00029398     	2.2718792e-03
0.000294414    	2.2814429e-03
0.000294848    	2.2924152e-03
0.000295283    	2.3043468e-03
0.000295717    	2.3167946e-03
0.000296151    	2.3293374e-03
0.000296585    	2.3414636e-03
0.000297019    	2.3527987e-03
0.000297453    	2.3629940e-03
0.000297887    	2.3718046e-03
0.000298321    	2.3791119e-03
0.000298756    	2.3849066e-03
0.00029919     	2.3891971e-03
0.000299624    	2.3921032e-03
0.000300058    	2.3937351e-03
0.000300492    	2.3943850e-03
0.000300926    	2.3941599e-03
0.00030136     	2.3933229e-03
0.000301794    	2.3920029e-03
0.000302228    	2.3903352e-03
0.000302663    	2.3884670e-03
0.000303097    	2.3863987e-03
0.000303531    	2.3840820e-03
0.000303965    	2.3815156e-03
0.000304399    	2.3785225e-03
0.000304833    	2.3750137e-03
0.000305267    	2.3705856e-03
0.000305701    	2.3652945e-03
0.000306135    	2.3587581e-03
0.000306569    	2.3510701e-03
0.000307004    	2.3419632e-03
0.000307438    	2.3314703e-03
0.000307872    	2.3196208e-03
0.000308306    	2.3064589e-03
0.00030874     	2.2921610e-03
0.000309174    	2.2768723e-03
0.000309608    	2.2612449e-03
0.000310042    	2.2452510e-03
0.000310476    	2.2292119e-03
0.00031091     	2.2135489e-03
0.000311344    	2.1988386e-03
0.000311779    	2.1852145e-03
0.000312213    	2.1729917e-03
0.000312647    	2.1623479e-03
0.000313081    	2.1534781e-03
0.000313515    	2.1463704e-03
0.000313949    	2.1410272e-03
0.000314383    	2.1372521e-03
0.000314817    	2.1348280e-03
0.000315251    	2.1332164e-03
0.000315685    	2.1324380e-03
0.000316119    	2.1317094e-03
0.000316553    	2.1308098e-03
0.000316987    	2.1292816e-03
0.000317421    	2.1265729e-03
0.000317855    	2.1227016e-03
0.000318289    	2.1169692e-03
0.000318724    	2.1097379e-03
0.000319158    	2.1005446e-03
0.000319592    	2.0897365e-03
0.000320026    	2.0773773e-03
0.00032046     	2.0636608e-03
0.000320894    	2.0489966e-03
0.000321328    	2.0333616e-03
0.000321762    	2.0175069e-03
0.000322196    	2.0014662e-03
0.00032263     	1.9861413e-03
0.000323064    	1.9715175e-03
0.000323498    	1.9581560e-03
0.000323932    	1.9461804e-03
0.000324366    	1.9359381e-03
0.0003248      	1.9278398e-03
0.000325234    	1.9217394e-03
0.000325668    	1.9180262e-03
0.000326102    	1.9162984e-03
0.000326536    	1.9169783e-03
0.00032697     	1.9194003e-03
0.000327404    	1.9236398e-03
0.000327838    	1.9291331e-03
0.000328272    	1.9354777e-03
0.000328706    	1.9423752e-03
0.00032914     	1.9492262e-03
0.000329574    	1.9558113e-03
0.000330008    	1.9617705e-03
0.000330442    	1.9666881e-03
0.000330876    	1.9703020e-03
0.00033131     	1.9725093e-03
0.000331744    	1.9731466e-03
0.000332178    	1.9724335e-03
0.000332612    	1.9703003e-03
0.000333046    	1.9672725e-03
0.00033348     	1.9632175e-03
0.000333914    	1.9587547e-03
0.000334348    	1.9539213e-03
0.000334782    	1.9493885e-03
0.000335216    	1.9450138e-03
0.00033565     	1.9414789e-03
0.000336084    	1.9387526e-03
0.000336517    	1.9371596e-03
0.000336951    	1.9367381e-03
0.000337385    	1.9375528e-03
0.000337819    	1.9393801e-03
0.000338253    	1.9422607e-03
0.000338687    	1.9459794e-03
0.000339121    	1.9502835e-03
0.000339555    	1.9548706e-03
0.000339989    	1.9596595e-03
0.000340423    	1.9642778e-03
0.000340857    	1.9685217e-03
0.000341291    	1.9722617e-03
0.000341725    	1.9753650e-03
0.000342159    	1.9776953e-03
0.000342593    	1.9792614e-03
0.000343027    	1.9799396e-03
0.00034346     	1.9799453e-03
0.000343894    	1.9793573e-03
0.000344328    	1.9782309e-03
0.000344762    	1.9768830e-03
0.000345196    	1.9752886e-03
0.00034563     	1.9736210e-03
0.000346064    	1.9722204e-03
0.000346498    	1.9709529e-03
0.000346932    	1.9698657e-03
0.000347366    	1.9689987e-03
0.0003478      	1.9683259e-03
0.000348233    	1.9677810e-03
0.000348667    	1.9672549e-03
0.000349101    	1.9665353e-03
0.000349535    	1.9654925e-03
0.000349969    	1.9640242e-03
0.000350403    	1.9619330e-03
0.000350837    	1.9591393e-03
0.000351271    	1.9555909e-03
0.000351704    	1.9510950e-03
0.000352138    	1.9458700e-03
0.000352572    	1.9401216e-03
0.000353006    	1.9338816e-03
0.00035344     	1.9270503e-03
0.000353874    	1.9200728e-03
0.000354307    	1.9131934e-03
0.000354741    	1.9066913e-03
0.000355175    	1.9008078e-03
0.000355609    	1.8958150e-03
0.000356043    	1.8919537e-03
0.000356477    	1.8895377e-03
0.00035691     	1.8887529e-03
0.000357344    	1.8896196e-03
0.000357778    	1.8925162e-03
0.000358212    	1.8972449e-03
0.000358646    	1.9040127e-03
0.00035908     	1.9125815e-03
0.000359513    	1.9229009e-03
0.000359947    	1.9348847e-03
0.000360381    	1.9481908e-03
0.000360815    	1.9626839e-03
0.000361249    	1.9778111e-03
0.000361682    	1.9937202e-03
0.000362116    	2.0098230e-03
0.00036255     	2.0260733e-03
0.000362984    	2.0422393e-03
0.000363417    	2.0582009e-03
0.000363851    	2.0737595e-03
0.000364285    	2.0888969e-03
0.000364719    	2.1037613e-03
0.000365153    	2.1183371e-03
0.000365586    	2.1327863e-03
0.00036602     	2.1472915e-03
0.000366454    	2.1621140e-03
0.000366888    	2.1774793e-03
0.000367321    	2.1934125e-03
0.000367755    	2.2103447e-03
0.000368189    	2.2283979e-03
0.000368622    	2.2476453e-03
0.000369056    	2.2682777e-03
0.00036949     	2.2903013e-03
0.000369924    	2.3136768e-03
0.000370357    	2.3383903e-03
0.000370791    	2.3642691e-03
0.000371225    	2.3910845e-03
0.000371659    	2.4186323e-03
0.000372092    	2.4465832e-03
0.000372526    	2.4745970e-03
0.00037296     	2.5023955e-03
0.000373393    	2.5296195e-03
0.000373827    	2.5560627e-03
0.000374261    	2.5815974e-03
0.000374694    	2.6060430e-03
0.000375128    	2.6292258e-03
0.000375562    	2.6511500e-03
0.000375995    	2.6718798e-03
0.000376429    	2.6916371e-03
0.000376863    	2.7106182e-03
0.000377296    	2.7289032e-03
0.00037773     	2.7467877e-03
0.000378164    	2.7644628e-03
0.000378597    	2.7822248e-03
0.000379031    	2.8002826e-03
0.000379465    	2.8186869e-03
0.000379898    	2.8375291e-03
0.000380332    	2.8567572e-03
0.000380765    	2.8763730e-03
0.000381199    	2.8962528e-03
0.000381633    	2.9162167e-03
0.000382066    	2.9360139e-03
0.0003825      	2.9553747e-03
0.000382933    	2.9740582e-03
0.000383367    	2.9918606e-03
0.000383801    	3.0084556e-03
0.000384234    	3.0236453e-03
0.000384668    	3.0372869e-03
0.000385101    	3.0492674e-03
0.000385535    	3.0595157e-03
0.000385969    	3.0679934e-03
0.000386402    	3.0747688e-03
0.000386836    	3.0799671e-03
0.000387269    	3.0837317e-03
0.000387703    	3.0862278e-03
0.000388136    	3.0876636e-03
0.00038857     	3.0882380e-03
0.000389003    	3.0881807e-03
0.000389437    	3.0876717e-03
0.00038987     	3.0868849e-03
0.000390304    	3.0859378e-03
0.000390737    	3.0848969e-03
0.000391171    	3.0837930e-03
0.000391604    	3.0825866e-03
0.000392038    	3.0811861e-03
0.000392471    	3.0794572e-03
0.000392905    	3.0772475e-03
0.000393338    	3.0744045e-03
0.000393772    	3.0706009e-03
0.000394205    	3.0655984e-03
0.000394639    	3.0591493e-03
0.000395072    	3.0510079e-03
0.000395506    	3.0410013e-03
0.000395939    	3.0289005e-03
0.000396373    	3.0145632e-03
0.000396806    	2.9979681e-03
0.00039724     	2.9789587e-03
0.000397673    	2.9576390e-03
0.000398106    	2.9340402e-03
0.00039854     	2.9082417e-03
0.000398973    	2.8803488e-03
0.000399407    	2.8504932e-03
0.00039984     	2.8188417e-03
0.000400273    	2.7856554e-03
0.000400707    	2.7509090e-03
0.00040114     	2.7149591e-03
0.000401574    	2.6778178e-03
0.000402007    	2.6399447e-03
0.00040244     	2.6012878e-03
0.000402874    	2.5620598e-03
0.000403307    	2.5222431e-03
0.00040374     	2.4819005e-03
0.000404174    	2.4412095e-03
0.000404607    	2.4002311e-03
0.00040504     	2.3589081e-03
0.000405474    	2.3173322e-03
0.000405907    	2.2750837e-03
0.00040634     	2.2329256e-03
0.000406774    	2.1905181e-03
0.000407207    	2.1478054e-03
0.00040764     	2.1051172e-03
0.000408074    	2.0624446e-03
0.000408507    	2.0199164e-03
0.00040894     	1.9775685e-03
0.000409373    	1.9356313e-03
0.000409807    	1.8945866e-03
0.00041024     	1.8543083e-03
0.000410673    	1.8149139e-03
0.000411107    	1.7762646e-03
0.00041154     	1.7385808e-03
0.000411973    	1.7020282e-03
0.000412406    	1.6670368e-03
0.000412839    	1.6333152e-03
0.000413273    	1.6006072e-03
0.000413706    	1.5694470e-03
0.000414139    	1.5389123e-03
0.000414572    	1.5094521e-03
0.000415006    	1.4809108e-03
0.000415439    	1.4527136e-03
0.000415872    	1.4251492e-03
0.000416305    	1.3976849e-03
0.000416738    	1.3699679e-03
0.000417171    	1.3418957e-03
0.000417605    	1.3137254e-03
0.000418038    	1.2851802e-03
0.000418471    	1.2560010e-03
0.000418904    	1.2259561e-03
0.000419337    	1.1951687e-03
0.00041977     	1.1640124e-03
0.000420203    	1.1323107e-03
0.000420637    	1.1002894e-03
0.00042107     	1.0678112e-03
0.000421503    	1.0351777e-03
0.000421936    	1.0027483e-03
0.000422369    	9.7063203e-04
0.000422802    	9.3898968e-04
0.000423235    	9.0791145e-04
0.000423668    	8.7750598e-04
0.000424101    	8.4791242e-04