# Region type : patch inlet
# Faces  :     778
# Area   :     6.2874094e-05
# Time         	sum(phi)
0              	0.0000000e+00
5.1074e-07     	-1.8280595e-03
9.44866e-07    	-2.1622034e-03
1.37899e-06    	-2.1947444e-03
1.81312e-06    	-2.1251194e-03
2.24725e-06    	-2.0216591e-03
2.68137e-06    	-1.9346277e-03
3.1155e-06     	-1.8861506e-03
3.54962e-06    	-1.8702600e-03
3.98375e-06    	-1.8678851e-03
4.41788e-06    	-1.8713452e-03
4.852e-06      	-1.8745979e-03
5.28613e-06    	-1.8762521e-03
5.72026e-06    	-1.8775086e-03
6.15438e-06    	-1.8796830e-03
6.58851e-06    	-1.8839491e-03
7.02264e-06    	-1.8918241e-03
7.45676e-06    	-1.9044168e-03
7.89089e-06    	-1.9222039e-03
8.32502e-06    	-1.9451741e-03
8.75914e-06    	-1.9723505e-03
9.19327e-06    	-2.0030483e-03
9.62739e-06    	-2.0366358e-03
1.00615e-05    	-2.0726234e-03
1.04956e-05    	-2.1105392e-03
1.09298e-05    	-2.1499188e-03
1.13639e-05    	-2.1902463e-03
1.1798e-05     	-2.2310874e-03
1.22322e-05    	-2.2721537e-03
1.26663e-05    	-2.3133784e-03
1.31004e-05    	-2.3547131e-03
1.35345e-05    	-2.3961305e-03
1.39687e-05    	-2.4377127e-03
1.44028e-05    	-2.4794961e-03
1.48369e-05    	-2.5215120e-03
1.5271e-05     	-2.5638113e-03
1.57052e-05    	-2.6063667e-03
1.61393e-05    	-2.6490674e-03
1.65734e-05    	-2.6919810e-03
1.70075e-05    	-2.7351615e-03
1.74417e-05    	-2.7785486e-03
1.78758e-05    	-2.8221925e-03
1.83099e-05    	-2.8661097e-03
1.8744e-05     	-2.9102669e-03
1.91782e-05    	-2.9547695e-03
1.96123e-05    	-2.9996124e-03
2.00464e-05    	-3.0447476e-03
2.04806e-05    	-3.0901748e-03
2.09147e-05    	-3.1357926e-03
2.13488e-05    	-3.1815228e-03
2.17829e-05    	-3.2272754e-03
2.22171e-05    	-3.2730067e-03
2.26512e-05    	-3.3186942e-03
2.30853e-05    	-3.3642582e-03
2.35194e-05    	-3.4096637e-03
2.39536e-05    	-3.4548296e-03
2.43877e-05    	-3.4997121e-03
2.48218e-05    	-3.5442856e-03
2.52559e-05    	-3.5885204e-03
2.56901e-05    	-3.6324274e-03
2.61242e-05    	-3.6759999e-03
2.65583e-05    	-3.7192241e-03
2.69925e-05    	-3.7620669e-03
2.74266e-05    	-3.8045204e-03
2.78607e-05    	-3.8465728e-03
2.82948e-05    	-3.8882095e-03
2.8729e-05     	-3.9294140e-03
2.91631e-05    	-3.9702037e-03
2.95972e-05    	-4.0105581e-03
3.00313e-05    	-4.0504349e-03
3.04655e-05    	-4.0897690e-03
3.08996e-05    	-4.1284588e-03
3.13337e-05    	-4.1664290e-03
3.17678e-05    	-4.2036959e-03
3.2202e-05     	-4.2403918e-03
3.26361e-05    	-4.2768685e-03
3.30702e-05    	-4.3136925e-03
3.35043e-05    	-4.3515840e-03
3.39385e-05    	-4.3913075e-03
3.43726e-05    	-4.4333721e-03
3.48067e-05    	-4.4778080e-03
3.52409e-05    	-4.5237445e-03
3.5675e-05     	-4.5682548e-03
3.61091e-05    	-4.6026755e-03
3.65432e-05    	-4.6198043e-03
3.69774e-05    	-4.6136626e-03
3.74115e-05    	-4.5800811e-03
3.78456e-05    	-4.5189352e-03
3.82797e-05    	-4.4335186e-03
3.87139e-05    	-4.3315346e-03
3.9148e-05     	-4.2227402e-03
3.95821e-05    	-4.1180648e-03
4.00162e-05    	-4.0306259e-03
4.04504e-05    	-3.9688868e-03
4.08845e-05    	-3.9355632e-03
4.13186e-05    	-3.9326854e-03
4.17528e-05    	-3.9580535e-03
4.21869e-05    	-4.0045767e-03
4.2621e-05     	-4.0676330e-03
4.30551e-05    	-4.1471357e-03
4.34893e-05    	-4.2403774e-03
4.39234e-05    	-4.3411209e-03
4.43575e-05    	-4.4430824e-03
4.47916e-05    	-4.5414070e-03
4.52258e-05    	-4.6321511e-03
4.56599e-05    	-4.7126015e-03
4.6094e-05     	-4.7815159e-03
4.65281e-05    	-4.8388224e-03
4.69623e-05    	-4.8850363e-03
4.73964e-05    	-4.9210935e-03
4.78305e-05    	-4.9479200e-03
4.82646e-05    	-4.9666384e-03
4.86988e-05    	-4.9785853e-03
4.91329e-05    	-4.9850135e-03
4.9567e-05     	-4.9869874e-03
5.00012e-05    	-4.9856074e-03
5.04353e-05    	-4.9819884e-03
5.08694e-05    	-4.9769353e-03
5.13035e-05    	-4.9712102e-03
5.17377e-05    	-4.9655339e-03
5.21718e-05    	-4.9606262e-03
5.26059e-05    	-4.9569622e-03
5.304e-05      	-4.9548744e-03
5.34742e-05    	-4.9546108e-03
5.39083e-05    	-4.9562272e-03
5.43424e-05    	-4.9597400e-03
5.47765e-05    	-4.9651057e-03
5.52107e-05    	-4.9722734e-03
5.56448e-05    	-4.9810882e-03
5.60789e-05    	-4.9913333e-03
5.6513e-05     	-5.0027543e-03
5.69472e-05    	-5.0150500e-03
5.73813e-05    	-5.0279520e-03
5.78154e-05    	-5.0412502e-03
5.82496e-05    	-5.0547955e-03
5.86837e-05    	-5.0684847e-03
5.91178e-05    	-5.0822463e-03
5.95519e-05    	-5.0960332e-03
5.99861e-05    	-5.1098095e-03
6.04202e-05    	-5.1235413e-03
6.08543e-05    	-5.1372079e-03
6.12884e-05    	-5.1508251e-03
6.17226e-05    	-5.1644299e-03
6.21567e-05    	-5.1780341e-03
6.25908e-05    	-5.1916692e-03
6.30249e-05    	-5.2053362e-03
6.34591e-05    	-5.2190461e-03
6.38932e-05    	-5.2327951e-03
6.43273e-05    	-5.2465793e-03
6.47615e-05    	-5.2603943e-03
6.51956e-05    	-5.2742275e-03
6.56297e-05    	-5.2880729e-03
6.60638e-05    	-5.3019351e-03
6.6498e-05     	-5.3158357e-03
6.69321e-05    	-5.3297892e-03
6.73662e-05    	-5.3438039e-03
6.78003e-05    	-5.3578632e-03
6.82345e-05    	-5.3718857e-03
6.86686e-05    	-5.3856902e-03
6.91027e-05    	-5.3989498e-03
6.95368e-05    	-5.4111068e-03
6.9971e-05     	-5.4213373e-03
7.04051e-05    	-5.4286059e-03
7.08392e-05    	-5.4321041e-03
7.12733e-05    	-5.4313831e-03
7.17075e-05    	-5.4258491e-03
7.21416e-05    	-5.4149879e-03
7.25757e-05    	-5.3985456e-03
7.30099e-05    	-5.3768753e-03
7.3444e-05     	-5.3512613e-03
7.38781e-05    	-5.3238166e-03
7.43122e-05    	-5.2970945e-03
7.47464e-05    	-5.2736379e-03
7.51805e-05    	-5.2560015e-03
7.56146e-05    	-5.2465233e-03
7.60487e-05    	-5.2456376e-03
7.64829e-05    	-5.2529122e-03
7.6917e-05     	-5.2674265e-03
7.73511e-05    	-5.2889572e-03
7.77852e-05    	-5.3174081e-03
7.82194e-05    	-5.3517990e-03
7.86535e-05    	-5.3897292e-03
7.90876e-05    	-5.4279585e-03
7.95217e-05    	-5.4633837e-03
7.99559e-05    	-5.4933920e-03
8.039e-05      	-5.5160710e-03
8.08241e-05    	-5.5308992e-03
8.12583e-05    	-5.5378596e-03
8.16924e-05    	-5.5373135e-03
8.21265e-05    	-5.5297384e-03
8.25606e-05    	-5.5161224e-03
8.29948e-05    	-5.4980750e-03
8.34289e-05    	-5.4776209e-03
8.3863e-05     	-5.4572025e-03
8.42971e-05    	-5.4391965e-03
8.47313e-05    	-5.4253507e-03
8.51654e-05    	-5.4166706e-03
8.55995e-05    	-5.4135340e-03
8.60336e-05    	-5.4158970e-03
8.64678e-05    	-5.4232963e-03
8.69019e-05    	-5.4352123e-03
8.7336e-05     	-5.4510227e-03
8.77702e-05    	-5.4700657e-03
8.82043e-05    	-5.4916229e-03
8.86384e-05    	-5.5147658e-03
8.90725e-05    	-5.5385150e-03
8.95067e-05    	-5.5620204e-03
8.99408e-05    	-5.5846370e-03
9.03749e-05    	-5.6059178e-03
9.0809e-05     	-5.6255508e-03
9.12432e-05    	-5.6433208e-03
9.16773e-05    	-5.6590586e-03
9.21114e-05    	-5.6725919e-03
9.25455e-05    	-5.6838128e-03
9.29797e-05    	-5.6926544e-03
9.34138e-05    	-5.6992588e-03
9.38479e-05    	-5.7038332e-03
9.4282e-05     	-5.7065714e-03
9.47162e-05    	-5.7076747e-03
9.51503e-05    	-5.7072393e-03
9.55844e-05    	-5.7054181e-03
9.60186e-05    	-5.7024774e-03
9.64527e-05    	-5.6987883e-03
9.68868e-05    	-5.6947028e-03
9.73209e-05    	-5.6905552e-03
9.77551e-05    	-5.6866383e-03
9.81892e-05    	-5.6832037e-03
9.86233e-05    	-5.6804586e-03
9.90574e-05    	-5.6785568e-03
9.94916e-05    	-5.6776181e-03
9.99257e-05    	-5.6776956e-03
0.00010036     	-5.6787777e-03
0.000100794    	-5.6807791e-03
0.000101228    	-5.6835482e-03
0.000101662    	-5.6869086e-03
0.000102096    	-5.6906363e-03
0.00010253     	-5.6944722e-03
0.000102965    	-5.6981157e-03
0.000103399    	-5.7012195e-03
0.000103833    	-5.7033953e-03
0.000104267    	-5.7042380e-03
0.000104701    	-5.7033208e-03
0.000105135    	-5.7004547e-03
0.000105569    	-5.6955471e-03
0.000106003    	-5.6883479e-03
0.000106438    	-5.6786356e-03
0.000106872    	-5.6664143e-03
0.000107306    	-5.6520849e-03
0.00010774     	-5.6364703e-03
0.000108174    	-5.6206475e-03
0.000108608    	-5.6058206e-03
0.000109042    	-5.5930603e-03
0.000109476    	-5.5834955e-03
0.000109911    	-5.5780626e-03
0.000110345    	-5.5772438e-03
0.000110779    	-5.5809803e-03
0.000111213    	-5.5891952e-03
0.000111647    	-5.6018574e-03
0.000112081    	-5.6188293e-03
0.000112515    	-5.6395446e-03
0.000112949    	-5.6628367e-03
0.000113384    	-5.6871370e-03
0.000113818    	-5.7107555e-03
0.000114252    	-5.7320967e-03
0.000114686    	-5.7497053e-03
0.00011512     	-5.7622861e-03
0.000115554    	-5.7694963e-03
0.000115988    	-5.7710979e-03
0.000116422    	-5.7667502e-03
0.000116857    	-5.7563522e-03
0.000117291    	-5.7403101e-03
0.000117725    	-5.7194978e-03
0.000118159    	-5.6952731e-03
0.000118593    	-5.6693519e-03
0.000119027    	-5.6436176e-03
0.000119461    	-5.6198048e-03
0.000119896    	-5.5991920e-03
0.00012033     	-5.5826145e-03
0.000120764    	-5.5704259e-03
0.000121198    	-5.5625864e-03
0.000121632    	-5.5585343e-03
0.000122066    	-5.5576588e-03
0.0001225      	-5.5595801e-03
0.000122934    	-5.5634119e-03
0.000123369    	-5.5682013e-03
0.000123803    	-5.5731475e-03
0.000124237    	-5.5774678e-03
0.000124671    	-5.5805458e-03
0.000125105    	-5.5819396e-03
0.000125539    	-5.5813702e-03
0.000125973    	-5.5787915e-03
0.000126407    	-5.5743265e-03
0.000126842    	-5.5682206e-03
0.000127276    	-5.5608078e-03
0.00012771     	-5.5525080e-03
0.000128144    	-5.5437534e-03
0.000128578    	-5.5350028e-03
0.000129012    	-5.5266800e-03
0.000129446    	-5.5191548e-03
0.00012988     	-5.5127590e-03
0.000130315    	-5.5077314e-03
0.000130749    	-5.5042163e-03
0.000131183    	-5.5022787e-03
0.000131617    	-5.5019006e-03
0.000132051    	-5.5030643e-03
0.000132485    	-5.5057414e-03
0.000132919    	-5.5098624e-03
0.000133353    	-5.5153261e-03
0.000133788    	-5.5219674e-03
0.000134222    	-5.5295742e-03
0.000134656    	-5.5378679e-03
0.00013509     	-5.5464892e-03
0.000135524    	-5.5550502e-03
0.000135958    	-5.5631473e-03
0.000136392    	-5.5703883e-03
0.000136826    	-5.5764074e-03
0.000137261    	-5.5808730e-03
0.000137695    	-5.5835198e-03
0.000138129    	-5.5841066e-03
0.000138563    	-5.5825203e-03
0.000138997    	-5.5787866e-03
0.000139431    	-5.5728680e-03
0.000139865    	-5.5647856e-03
0.000140299    	-5.5546983e-03
0.000140734    	-5.5429915e-03
0.000141168    	-5.5303131e-03
0.000141602    	-5.5174408e-03
0.000142036    	-5.5051607e-03
0.00014247     	-5.4942519e-03
0.000142904    	-5.4854106e-03
0.000143338    	-5.4791668e-03
0.000143772    	-5.4759333e-03
0.000144207    	-5.4759610e-03
0.000144641    	-5.4790527e-03
0.000145075    	-5.4849643e-03
0.000145509    	-5.4935447e-03
0.000145943    	-5.5046108e-03
0.000146377    	-5.5177775e-03
0.000146811    	-5.5324245e-03
0.000147245    	-5.5477115e-03
0.00014768     	-5.5627342e-03
0.000148114    	-5.5766233e-03
0.000148548    	-5.5885813e-03
0.000148982    	-5.5977487e-03
0.000149416    	-5.6032864e-03
0.00014985     	-5.6049611e-03
0.000150284    	-5.6027848e-03
0.000150718    	-5.5965707e-03
0.000151153    	-5.5860136e-03
0.000151587    	-5.5712162e-03
0.000152021    	-5.5530324e-03
0.000152455    	-5.5329632e-03
0.000152889    	-5.5127451e-03
0.000153323    	-5.4939933e-03
0.000153757    	-5.4780465e-03
0.000154191    	-5.4658481e-03
0.000154626    	-5.4579824e-03
0.00015506     	-5.4547987e-03
0.000155494    	-5.4563829e-03
0.000155928    	-5.4622554e-03
0.000156362    	-5.4718852e-03
0.000156796    	-5.4848292e-03
0.00015723     	-5.5005773e-03
0.000157665    	-5.5184874e-03
0.000158099    	-5.5377194e-03
0.000158533    	-5.5573101e-03
0.000158967    	-5.5762820e-03
0.000159401    	-5.5937310e-03
0.000159835    	-5.6089066e-03
0.000160269    	-5.6212211e-03
0.000160703    	-5.6303326e-03
0.000161138    	-5.6362861e-03
0.000161572    	-5.6392002e-03
0.000162006    	-5.6392389e-03
0.00016244     	-5.6366842e-03
0.000162874    	-5.6320772e-03
0.000163308    	-5.6261650e-03
0.000163742    	-5.6196821e-03
0.000164176    	-5.6132562e-03
0.000164611    	-5.6074191e-03
0.000165045    	-5.6025213e-03
0.000165479    	-5.5987863e-03
0.000165913    	-5.5962751e-03
0.000166347    	-5.5948769e-03
0.000166781    	-5.5943999e-03
0.000167215    	-5.5946583e-03
0.000167649    	-5.5954517e-03
0.000168084    	-5.5965307e-03
0.000168518    	-5.5976341e-03
0.000168952    	-5.5985062e-03
0.000169386    	-5.5988722e-03
0.00016982     	-5.5984541e-03
0.000170254    	-5.5970131e-03
0.000170688    	-5.5943221e-03
0.000171122    	-5.5902155e-03
0.000171557    	-5.5845818e-03
0.000171991    	-5.5773617e-03
0.000172425    	-5.5686270e-03
0.000172859    	-5.5585502e-03
0.000173293    	-5.5473758e-03
0.000173727    	-5.5353812e-03
0.000174161    	-5.5229794e-03
0.000174595    	-5.5105966e-03
0.00017503     	-5.4987122e-03
0.000175464    	-5.4878232e-03
0.000175898    	-5.4783810e-03
0.000176332    	-5.4707464e-03
0.000176766    	-5.4650965e-03
0.0001772      	-5.4615359e-03
0.000177634    	-5.4600390e-03
0.000178068    	-5.4605270e-03
0.000178503    	-5.4628847e-03
0.000178937    	-5.4669150e-03
0.000179371    	-5.4723406e-03
0.000179805    	-5.4787910e-03
0.000180239    	-5.4858213e-03
0.000180673    	-5.4929297e-03
0.000181107    	-5.4995539e-03
0.000181541    	-5.5051137e-03
0.000181976    	-5.5090506e-03
0.00018241     	-5.5108228e-03
0.000182844    	-5.5100566e-03
0.000183278    	-5.5063788e-03
0.000183712    	-5.4995059e-03
0.000184146    	-5.4891482e-03
0.00018458     	-5.4749671e-03
0.000185014    	-5.4568531e-03
0.000185449    	-5.4351329e-03
0.000185883    	-5.4104211e-03
0.000186317    	-5.3834461e-03
0.000186751    	-5.3553185e-03
0.000187185    	-5.3268844e-03
0.000187619    	-5.2989937e-03
0.000188053    	-5.2723250e-03
0.000188487    	-5.2472925e-03
0.000188922    	-5.2241820e-03
0.000189356    	-5.2029926e-03
0.00018979     	-5.1836177e-03
0.000190224    	-5.1657657e-03
0.000190658    	-5.1489073e-03
0.000191092    	-5.1324414e-03
0.000191526    	-5.1157132e-03
0.00019196     	-5.0980232e-03
0.000192395    	-5.0786097e-03
0.000192829    	-5.0566978e-03
0.000193263    	-5.0314369e-03
0.000193697    	-5.0020029e-03
0.000194131    	-4.9676948e-03
0.000194565    	-4.9280863e-03
0.000194999    	-4.8828993e-03
0.000195434    	-4.8322113e-03
0.000195868    	-4.7762787e-03
0.000196302    	-4.7158137e-03
0.000196736    	-4.6518731e-03
0.00019717     	-4.5855081e-03
0.000197604    	-4.5178442e-03
0.000198038    	-4.4499501e-03
0.000198472    	-4.3826362e-03
0.000198907    	-4.3166266e-03
0.000199341    	-4.2523740e-03
0.000199775    	-4.1903591e-03
0.000200209    	-4.1306012e-03
0.000200643    	-4.0730080e-03
0.000201077    	-4.0173917e-03
0.000201511    	-3.9632672e-03
0.000201945    	-3.9102004e-03
0.00020238     	-3.8576344e-03
0.000202814    	-3.8049999e-03
0.000203248    	-3.7517885e-03
0.000203682    	-3.6973883e-03
0.000204116    	-3.6415151e-03
0.00020455     	-3.5839981e-03
0.000204984    	-3.5245446e-03
0.000205418    	-3.4632581e-03
0.000205853    	-3.4002726e-03
0.000206287    	-3.3357271e-03
0.000206721    	-3.2703952e-03
0.000207155    	-3.2040387e-03
0.000207589    	-3.1382025e-03
0.000208023    	-3.0723038e-03
0.000208457    	-3.0072407e-03
0.000208891    	-2.9440368e-03
0.000209326    	-2.8812270e-03
0.00020976     	-2.8215227e-03
0.000210194    	-2.7623263e-03
0.000210628    	-2.7062451e-03
0.000211062    	-2.6510704e-03
0.000211496    	-2.5978059e-03
0.00021193     	-2.5455256e-03
0.000212364    	-2.4935713e-03
0.000212799    	-2.4423282e-03
0.000213233    	-2.3896046e-03
0.000213667    	-2.3369451e-03
0.000214101    	-2.2816050e-03
0.000214535    	-2.2254351e-03
0.000214969    	-2.1659485e-03
0.000215403    	-2.1046162e-03
0.000215837    	-2.0399554e-03
0.000216272    	-1.9729263e-03
0.000216706    	-1.9034409e-03
0.00021714     	-1.8314134e-03
0.000217574    	-1.7584022e-03
0.000218008    	-1.6836906e-03
0.000218442    	-1.6096853e-03
0.000218876    	-1.5353200e-03
0.00021931     	-1.4635011e-03
0.000219745    	-1.3928217e-03
0.000220179    	-1.3264428e-03
0.000220613    	-1.2627688e-03
0.000221047    	-1.2039240e-03
0.000221481    	-1.1492312e-03
0.000221915    	-1.0987155e-03
0.000222349    	-1.0524994e-03
0.000222783    	-1.0096359e-03
0.000223218    	-9.6978753e-04
0.000223652    	-9.3249618e-04
0.000224086    	-8.9663613e-04
0.00022452     	-8.6161493e-04
0.000224954    	-8.2685864e-04
0.000225388    	-7.9136863e-04
0.000225822    	-7.5479048e-04
0.000226256    	-7.1609217e-04
0.000226691    	-6.7530317e-04
0.000227125    	-6.3189323e-04
0.000227559    	-5.8656000e-04
0.000227993    	-5.3842303e-04
0.000228427    	-4.8875877e-04
0.000228861    	-4.3763147e-04
0.000229295    	-3.8601195e-04
0.000229729    	-3.3432047e-04
0.000230164    	-2.8332198e-04
0.000230598    	-2.3506344e-04
0.000231032    	-1.8723496e-04
0.000231466    	-1.4282182e-04
0.0002319      	-1.0053494e-04
0.000232334    	-6.1272114e-05
0.000232768    	-2.3822357e-05
0.000233203    	1.1207174e-05
0.000233637    	4.5264229e-05
0.000234071    	7.8211018e-05
0.000234505    	1.1104675e-04
0.000234939    	1.4434581e-04
0.000235373    	1.7833281e-04
0.000235807    	2.1379074e-04
0.000236241    	2.5140435e-04
0.000236676    	2.9062900e-04
0.00023711     	3.3286827e-04
0.000237544    	3.7629833e-04
0.000237978    	4.2248347e-04
0.000238412    	4.6914686e-04
0.000238846    	5.1744154e-04
0.00023928     	5.6474005e-04
0.000239714    	6.1209586e-04
0.000240149    	6.5696117e-04
0.000240583    	7.0014206e-04
0.000241017    	7.3990144e-04
0.000241451    	7.7581787e-04
0.000241885    	8.0857119e-04
0.000242319    	8.3624132e-04
0.000242753    	8.6091022e-04
0.000243187    	8.8113380e-04
0.000243622    	8.9856805e-04
0.000244056    	9.1303497e-04
0.00024449     	9.2502547e-04
0.000244924    	9.3532618e-04
0.000245358    	9.4417331e-04
0.000245792    	9.5272245e-04
0.000246226    	9.6115914e-04
0.00024666     	9.7070352e-04
0.000247095    	9.8129427e-04
0.000247529    	9.9375916e-04
0.000247963    	1.0082612e-03
0.000248397    	1.0254061e-03
0.000248831    	1.0446129e-03
0.000249265    	1.0664457e-03
0.000249699    	1.0906522e-03
0.000250133    	1.1163081e-03
0.000250568    	1.1439497e-03
0.000251002    	1.1716578e-03
0.000251436    	1.2001154e-03
0.00025187     	1.2281813e-03
0.000252304    	1.2549573e-03
0.000252738    	1.2813992e-03
0.000253172    	1.3051853e-03
0.000253606    	1.3280994e-03
0.000254041    	1.3480265e-03
0.000254475    	1.3663885e-03
0.000254909    	1.3830305e-03
0.000255343    	1.3970116e-03
0.000255777    	1.4107011e-03
0.000256211    	1.4219311e-03
0.000256645    	1.4337581e-03
0.000257079    	1.4447217e-03
0.000257514    	1.4563304e-03
0.000257948    	1.4684296e-03
0.000258382    	1.4816956e-03
0.000258816    	1.4961136e-03
0.00025925     	1.5125370e-03
0.000259684    	1.5296124e-03
0.000260118    	1.5486606e-03
0.000260552    	1.5680308e-03
0.000260987    	1.5879888e-03
0.000261421    	1.6080388e-03
0.000261855    	1.6269663e-03
0.000262289    	1.6454859e-03
0.000262723    	1.6615173e-03
0.000263157    	1.6758970e-03
0.000263591    	1.6877626e-03
0.000264025    	1.6969236e-03
0.00026446     	1.7035514e-03
0.000264894    	1.7073521e-03
0.000265328    	1.7091013e-03
0.000265762    	1.7085328e-03
0.000266196    	1.7064155e-03
0.00026663     	1.7033067e-03
0.000267064    	1.6991729e-03
0.000267498    	1.6956867e-03
0.000267933    	1.6919694e-03
0.000268367    	1.6897874e-03
0.000268801    	1.6889186e-03
0.000269235    	1.6893985e-03
0.000269669    	1.6927617e-03
0.000270103    	1.6974545e-03
0.000270537    	1.7048964e-03
0.000270972    	1.7142205e-03
0.000271406    	1.7250061e-03
0.00027184     	1.7378602e-03
0.000272274    	1.7512603e-03
0.000272708    	1.7655792e-03
0.000273142    	1.7803877e-03
0.000273576    	1.7947625e-03
0.00027401     	1.8087737e-03
0.000274445    	1.8222334e-03
0.000274879    	1.8343695e-03
0.000275313    	1.8459357e-03
0.000275747    	1.8565245e-03
0.000276181    	1.8659871e-03
0.000276615    	1.8758145e-03
0.000277049    	1.8847996e-03
0.000277483    	1.8942956e-03
0.000277918    	1.9048969e-03
0.000278352    	1.9160913e-03
0.000278786    	1.9290149e-03
0.00027922     	1.9439870e-03
0.000279654    	1.9603344e-03
0.000280088    	1.9793544e-03
0.000280522    	2.0001818e-03
0.000280956    	2.0229524e-03
0.000281391    	2.0471828e-03
0.000281825    	2.0726392e-03
0.000282259    	2.0988359e-03
0.000282693    	2.1248303e-03
0.000283127    	2.1507745e-03
0.000283561    	2.1754171e-03
0.000283995    	2.1988752e-03
0.000284429    	2.2200497e-03
0.000284864    	2.2392892e-03
0.000285298    	2.2556066e-03
0.000285732    	2.2693319e-03
0.000286166    	2.2799217e-03
0.0002866      	2.2877217e-03
0.000287034    	2.2924428e-03
0.000287468    	2.2944507e-03
0.000287902    	2.2939196e-03
0.000288337    	2.2912670e-03
0.000288771    	2.2869646e-03
0.000289205    	2.2815191e-03
0.000289639    	2.2754561e-03
0.000290073    	2.2692914e-03
0.000290507    	2.2634690e-03
0.000290941    	2.2583692e-03
0.000291375    	2.2545977e-03
0.00029181     	2.2525939e-03
0.000292244    	2.2524428e-03
0.000292678    	2.2543444e-03
0.000293112    	2.2583373e-03
0.000293546    	2.2643008e-03
0.00029398     	2.2721573e-03
0.000294414    	2.2817218e-03
0.000294848    	2.2926972e-03
0.000295283    	2.3046246e-03
0.000295717    	2.3170698e-03
0.000296151    	2.3296172e-03
0.000296585    	2.3417341e-03
0.000297019    	2.3530528e-03
0.000297453    	2.3632313e-03
0.000297887    	2.3720346e-03
0.000298321    	2.3793471e-03
0.000298756    	2.3851407e-03
0.00029919     	2.3894228e-03
0.000299624    	2.3923350e-03
0.000300058    	2.3939308e-03
0.000300492    	2.3945996e-03
0.000300926    	2.3943872e-03
0.00030136     	2.3935528e-03
0.000301794    	2.3922296e-03
0.000302228    	2.3905717e-03
0.000302663    	2.3887051e-03
0.000303097    	2.3866319e-03
0.000303531    	2.3843149e-03
0.000303965    	2.3817442e-03
0.000304399    	2.3787558e-03
0.000304833    	2.3751819e-03
0.000305267    	2.3708772e-03
0.000305701    	2.3654430e-03
0.000306135    	2.3590381e-03
0.000306569    	2.3512199e-03
0.000307004    	2.3421893e-03
0.000307438    	2.3316445e-03
0.000307872    	2.3198233e-03
0.000308306    	2.3066780e-03
0.00030874     	2.2923905e-03
0.000309174    	2.2770895e-03
0.000309608    	2.2613685e-03
0.000310042    	2.2454396e-03
0.000310476    	2.2294655e-03
0.00031091     	2.2138022e-03
0.000311344    	2.1990580e-03
0.000311778    	2.1854269e-03
0.000312213    	2.1732093e-03
0.000312647    	2.1625662e-03
0.000313081    	2.1536849e-03
0.000313515    	2.1465702e-03
0.000313949    	2.1412247e-03
0.000314383    	2.1374467e-03
0.000314817    	2.1350136e-03
0.000315251    	2.1333952e-03
0.000315685    	2.1326229e-03
0.000316119    	2.1319051e-03
0.000316553    	2.1310062e-03
0.000316987    	2.1294759e-03
0.000317421    	2.1267675e-03
0.000317855    	2.1228951e-03
0.000318289    	2.1171611e-03
0.000318723    	2.1099269e-03
0.000319157    	2.1007289e-03
0.000319591    	2.0899160e-03
0.000320025    	2.0775529e-03
0.000320459    	2.0638327e-03
0.000320893    	2.0491616e-03
0.000321327    	2.0335205e-03
0.000321761    	2.0176592e-03
0.000322196    	2.0016191e-03
0.00032263     	1.9862930e-03
0.000323064    	1.9716642e-03
0.000323498    	1.9582958e-03
0.000323932    	1.9463132e-03
0.000324366    	1.9360647e-03
0.0003248      	1.9279553e-03
0.000325234    	1.9218434e-03
0.000325668    	1.9181109e-03
0.000326102    	1.9163813e-03
0.000326536    	1.9170463e-03
0.000326969    	1.9194579e-03
0.000327403    	1.9236991e-03
0.000327837    	1.9291622e-03
0.000328271    	1.9355098e-03
0.000328705    	1.9423893e-03
0.000329139    	1.9492348e-03
0.000329573    	1.9557930e-03
0.000330007    	1.9617733e-03
0.000330441    	1.9666616e-03
0.000330875    	1.9702681e-03
0.000331309    	1.9724776e-03
0.000331743    	1.9731155e-03
0.000332177    	1.9724134e-03
0.000332611    	1.9702950e-03
0.000333045    	1.9672746e-03
0.000333479    	1.9632272e-03
0.000333913    	1.9587651e-03
0.000334347    	1.9539364e-03
0.000334781    	1.9493961e-03
0.000335215    	1.9450581e-03
0.000335649    	1.9414900e-03
0.000336083    	1.9387450e-03
0.000336517    	1.9371615e-03
0.00033695     	1.9367205e-03
0.000337384    	1.9375240e-03
0.000337818    	1.9393401e-03
0.000338252    	1.9422098e-03
0.000338686    	1.9459280e-03
0.00033912     	1.9502085e-03
0.000339554    	1.9547985e-03
0.000339988    	1.9595729e-03
0.000340422    	1.9641671e-03
0.000340856    	1.9684053e-03
0.00034129     	1.9721534e-03
0.000341723    	1.9752355e-03
0.000342157    	1.9775565e-03
0.000342591    	1.9791245e-03
0.000343025    	1.9797933e-03
0.000343459    	1.9798109e-03
0.000343893    	1.9791855e-03
0.000344327    	1.9780766e-03
0.000344761    	1.9767191e-03
0.000345194    	1.9751149e-03
0.000345628    	1.9734483e-03
0.000346062    	1.9720402e-03
0.000346496    	1.9707488e-03
0.00034693     	1.9696479e-03
0.000347364    	1.9687680e-03
0.000347798    	1.9680834e-03
0.000348231    	1.9675386e-03
0.000348665    	1.9670087e-03
0.000349099    	1.9662690e-03
0.000349533    	1.9652380e-03
0.000349967    	1.9637712e-03
0.000350401    	1.9616651e-03
0.000350834    	1.9588545e-03
0.000351268    	1.9553185e-03
0.000351702    	1.9508521e-03
0.000352136    	1.9455848e-03
0.00035257     	1.9398400e-03
0.000353003    	1.9335959e-03
0.000353437    	1.9267660e-03
0.000353871    	1.9197742e-03
0.000354305    	1.9128761e-03
0.000354739    	1.9063456e-03
0.000355172    	1.9004411e-03
0.000355606    	1.8954217e-03
0.00035604     	1.8915315e-03
0.000356474    	1.8891075e-03
0.000356907    	1.8882956e-03
0.000357341    	1.8891445e-03
0.000357775    	1.8920176e-03
0.000358209    	1.8967204e-03
0.000358642    	1.9034744e-03
0.000359076    	1.9120337e-03
0.00035951     	1.9223300e-03
0.000359944    	1.9342799e-03
0.000360377    	1.9475623e-03
0.000360811    	1.9620338e-03
0.000361245    	1.9771350e-03
0.000361679    	1.9930277e-03
0.000362112    	2.0091103e-03
0.000362546    	2.0253370e-03
0.00036298     	2.0414928e-03
0.000363414    	2.0574496e-03
0.000363847    	2.0730104e-03
0.000364281    	2.0881418e-03
0.000364715    	2.1030687e-03
0.000365148    	2.1175473e-03
0.000365582    	2.1319855e-03
0.000366016    	2.1465427e-03
0.000366449    	2.1613877e-03
0.000366883    	2.1766888e-03
0.000367317    	2.1926158e-03
0.00036775     	2.2095401e-03
0.000368184    	2.2275652e-03
0.000368618    	2.2467855e-03
0.000369051    	2.2673883e-03
0.000369485    	2.2893541e-03
0.000369919    	2.3127229e-03
0.000370352    	2.3373866e-03
0.000370786    	2.3632321e-03
0.00037122     	2.3900189e-03
0.000371653    	2.4175392e-03
0.000372087    	2.4454647e-03
0.000372521    	2.4734567e-03
0.000372954    	2.5012436e-03
0.000373388    	2.5284438e-03
0.000373821    	2.5548681e-03
0.000374255    	2.5803956e-03
0.000374689    	2.6048472e-03
0.000375122    	2.6280290e-03
0.000375556    	2.6499614e-03
0.000375989    	2.6706879e-03
0.000376423    	2.6904328e-03
0.000376857    	2.7094143e-03
0.00037729     	2.7277133e-03
0.000377724    	2.7455803e-03
0.000378157    	2.7632391e-03
0.000378591    	2.7809714e-03
0.000379024    	2.7989931e-03
0.000379458    	2.8173733e-03
0.000379892    	2.8361887e-03
0.000380325    	2.8553923e-03
0.000380759    	2.8749804e-03
0.000381192    	2.8948375e-03
0.000381626    	2.9147788e-03
0.000382059    	2.9345721e-03
0.000382493    	2.9539271e-03
0.000382926    	2.9726125e-03
0.00038336     	2.9904225e-03
0.000383793    	3.0070377e-03
0.000384227    	3.0222443e-03
0.00038466     	3.0359076e-03
0.000385094    	3.0479038e-03
0.000385527    	3.0581675e-03
0.000385961    	3.0666585e-03
0.000386394    	3.0734386e-03
0.000386828    	3.0786336e-03
0.000387261    	3.0823999e-03
0.000387695    	3.0848996e-03
0.000388128    	3.0863352e-03
0.000388561    	3.0869117e-03
0.000388995    	3.0868550e-03
0.000389428    	3.0863458e-03
0.000389862    	3.0855574e-03
0.000390295    	3.0846043e-03
0.000390729    	3.0835540e-03
0.000391162    	3.0824425e-03
0.000391595    	3.0812282e-03
0.000392029    	3.0798204e-03
0.000392462    	3.0780913e-03
0.000392896    	3.0758873e-03
0.000393329    	3.0730500e-03
0.000393762    	3.0692511e-03
0.000394196    	3.0642623e-03
0.000394629    	3.0578423e-03
0.000395062    	3.0497301e-03
0.000395496    	3.0397519e-03
0.000395929    	3.0276976e-03
0.000396362    	3.0133981e-03
0.000396796    	2.9968511e-03
0.000397229    	2.9778920e-03
0.000397662    	2.9566229e-03
0.000398096    	2.9330841e-03
0.000398529    	2.9073358e-03
0.000398962    	2.8795014e-03
0.000399396    	2.8496938e-03
0.000399829    	2.8180729e-03
0.000400262    	2.7849192e-03
0.000400696    	2.7502008e-03
0.000401129    	2.7142654e-03
0.000401562    	2.6771584e-03
0.000401995    	2.6392793e-03
0.000402429    	2.6006416e-03
0.000402862    	2.5614191e-03
0.000403295    	2.5216073e-03
0.000403728    	2.4812562e-03
0.000404162    	2.4405675e-03
0.000404595    	2.3995594e-03
0.000405028    	2.3582860e-03
0.000405461    	2.3167189e-03
0.000405894    	2.2744759e-03
0.000406328    	2.2323543e-03
0.000406761    	2.1898896e-03
0.000407194    	2.1472153e-03
0.000407627    	2.1045133e-03
0.00040806     	2.0618656e-03
0.000408493    	2.0193694e-03
0.000408927    	1.9770886e-03
0.00040936     	1.9350914e-03
0.000409793    	1.8939474e-03
0.000410226    	1.8535221e-03
0.000410659    	1.8140469e-03
0.000411092    	1.7754433e-03
0.000411525    	1.7377617e-03
0.000411959    	1.7012115e-03
0.000412392    	1.6661191e-03
0.000412825    	1.6323131e-03
0.000413258    	1.5995505e-03
0.000413691    	1.5682694e-03
0.000414124    	1.5377539e-03
0.000414557    	1.5083747e-03
0.00041499     	1.4797089e-03
0.000415423    	1.4514063e-03
0.000415856    	1.4238088e-03
0.000416289    	1.3964041e-03
0.000416722    	1.3686946e-03
0.000417155    	1.3405681e-03
0.000417588    	1.3123970e-03
0.000418021    	1.2838424e-03
0.000418454    	1.2547269e-03
0.000418887    	1.2246921e-03
0.00041932     	1.1938992e-03
0.000419753    	1.1627429e-03
0.000420186    	1.1310852e-03
0.000420619    	1.0990483e-03
0.000421052    	1.0665814e-03
0.000421485    	1.0339218e-03
0.000421918    	1.0014532e-03
0.000422351    	9.6930488e-04
0.000422784    	9.3764277e-04
0.000423217    	9.0652112e-04
0.00042365     	8.7606961e-04
0.000424083    	8.4642935e-04