# Region type : patch cOutlet
# Faces  :     1874
# Area   :     4.0516941e-05
# Time         	average(U)	average(p)	average(T)
0              	(0.0000000e+00 0.0000000e+00 0.0000000e+00)	1.0000000e+05	2.9300000e+02
5.01139e-07    	(1.1021415e-07 -6.2076382e-04 4.3176634e-07)	1.0000091e+05	2.9400000e+02
9.24638e-07    	(-1.4805322e-05 -6.0434809e-04 4.8213827e-05)	9.9999949e+04	2.9399096e+02
1.34814e-06    	(1.2570148e-04 -3.1569025e-03 1.2395527e-04)	9.9998989e+04	2.9398623e+02
1.77163e-06    	(5.5864383e-04 -8.0521527e-03 1.6038596e-04)	9.9959135e+04	2.9375786e+02
2.19513e-06    	(2.9088227e-04 -5.2909082e-02 5.7229922e-04)	9.9944112e+04	2.9377462e+02
2.61863e-06    	(-6.4555037e-04 -8.6394119e-02 -1.5658289e-05)	9.9950811e+04	2.9380413e+02
3.04213e-06    	(-1.3202957e-03 -8.9315101e-02 -3.4790523e-04)	9.9954228e+04	2.9380775e+02
3.46563e-06    	(6.1786081e-04 -8.1575935e-02 1.0916584e-03)	9.9950867e+04	2.9375429e+02
3.88913e-06    	(-3.3870466e-04 -7.6106906e-02 1.4427860e-04)	9.9946650e+04	2.9378032e+02
4.31263e-06    	(-1.2140402e-04 -7.0752785e-02 1.2849138e-04)	9.9948965e+04	2.9380567e+02
4.73612e-06    	(7.7951525e-04 -6.4891207e-02 6.3321449e-04)	9.9950212e+04	2.9381521e+02
5.15962e-06    	(1.3255420e-03 -6.1503612e-02 5.9066183e-04)	9.9949262e+04	2.9381364e+02
5.58312e-06    	(7.9854698e-04 -6.4849545e-02 7.9571738e-05)	9.9942360e+04	2.9379838e+02
6.00662e-06    	(-4.9679053e-04 -6.1511142e-02 -1.1458029e-03)	9.9937978e+04	2.9378845e+02
6.43012e-06    	(-1.1276998e-03 -5.4436826e-02 -1.6991127e-03)	9.9930899e+04	2.9378814e+02
6.85362e-06    	(-1.1704395e-03 -4.5878231e-02 -1.9793007e-03)	9.9924954e+04	2.9377300e+02
7.27712e-06    	(-5.6349474e-04 -4.4077377e-02 -1.2655845e-03)	9.9924876e+04	2.9377924e+02
7.70061e-06    	(-8.6533994e-04 -4.2590214e-02 -1.4906465e-03)	9.9927204e+04	2.9378433e+02
8.12411e-06    	(-1.1817287e-03 -4.1820426e-02 -1.6712368e-03)	9.9929361e+04	2.9378821e+02
8.54761e-06    	(-1.4919760e-03 -3.9960931e-02 -1.2066735e-03)	9.9931599e+04	2.9379124e+02
8.97111e-06    	(-1.5169059e-03 -3.8392536e-02 -5.4664069e-04)	9.9933468e+04	2.9379415e+02
9.39461e-06    	(-1.2290659e-03 -3.6829600e-02 -4.2820592e-04)	9.9934635e+04	2.9379571e+02
9.81811e-06    	(-1.8677510e-03 -3.5584055e-02 -6.7502162e-04)	9.9936561e+04	2.9379993e+02
1.02416e-05    	(-2.0416524e-03 -3.4806304e-02 9.1773376e-04)	9.9937677e+04	2.9380033e+02
1.06651e-05    	(-2.0046625e-03 -3.3794583e-02 2.4038592e-03)	9.9938878e+04	2.9380092e+02
1.10886e-05    	(-1.8698070e-03 -3.2606595e-02 1.5442427e-03)	9.9939621e+04	2.9380022e+02
1.15121e-05    	(-1.8652102e-03 -3.2617447e-02 1.2713182e-03)	9.9939643e+04	2.9379558e+02
1.19356e-05    	(-2.2143534e-03 -3.2405009e-02 7.9617325e-04)	9.9940597e+04	2.9379795e+02
1.23591e-05    	(-1.8952394e-03 -3.1178766e-02 3.4188697e-04)	9.9941881e+04	2.9379966e+02
1.27826e-05    	(-1.9265520e-03 -3.0365443e-02 1.4883214e-03)	9.9942900e+04	2.9379960e+02
1.32061e-05    	(-9.9702371e-04 -2.9190089e-02 1.1986194e-03)	9.9943471e+04	2.9379936e+02
1.36296e-05    	(-1.1728825e-03 -2.8110926e-02 6.3417725e-04)	9.9944445e+04	2.9380056e+02
1.40531e-05    	(-1.7855694e-03 -2.6776660e-02 6.9932599e-04)	9.9945475e+04	2.9380012e+02
1.44766e-05    	(-1.0874895e-03 -2.6017551e-02 9.0715239e-04)	9.9945306e+04	2.9379624e+02
1.49001e-05    	(-1.0554305e-03 -2.5264198e-02 9.6656634e-04)	9.9945866e+04	2.9379801e+02
1.53236e-05    	(-1.5476956e-03 -2.4603108e-02 2.8594207e-04)	9.9946018e+04	2.9379584e+02
1.57471e-05    	(-8.7825432e-04 -2.3460137e-02 4.9869696e-04)	9.9946783e+04	2.9379565e+02
1.61706e-05    	(-1.1078127e-03 -2.2637595e-02 3.7247590e-04)	9.9946874e+04	2.9379399e+02
1.65941e-05    	(-9.0839404e-04 -2.1965043e-02 5.1319987e-05)	9.9947267e+04	2.9379565e+02
1.70176e-05    	(-8.0308320e-04 -2.0541858e-02 2.2790816e-04)	9.9947806e+04	2.9379595e+02
1.74411e-05    	(-1.0313106e-03 -1.9860105e-02 -1.0515821e-03)	9.9947600e+04	2.9379169e+02
1.78646e-05    	(-1.4487346e-03 -2.0235368e-02 -7.5732409e-04)	9.9946651e+04	2.9378753e+02
1.82881e-05    	(-1.4786199e-03 -1.9439379e-02 7.1487215e-04)	9.9947807e+04	2.9379169e+02
1.87116e-05    	(-6.8670856e-04 -1.8341944e-02 4.0918064e-05)	9.9948096e+04	2.9378971e+02
1.91351e-05    	(-6.3255589e-04 -1.8268378e-02 -7.4329641e-04)	9.9948473e+04	2.9378937e+02
1.95586e-05    	(-1.3303166e-03 -1.8264145e-02 -8.8624977e-04)	9.9948217e+04	2.9378811e+02
1.99821e-05    	(-1.4758529e-03 -1.7802631e-02 -6.3799367e-04)	9.9947700e+04	2.9378524e+02
2.04056e-05    	(-1.1866824e-03 -1.8661893e-02 -5.2424956e-05)	9.9947889e+04	2.9378328e+02
2.08291e-05    	(-8.2269082e-04 -1.8693770e-02 2.0210917e-04)	9.9947705e+04	2.9378185e+02
2.12526e-05    	(-5.6638474e-04 -1.8304531e-02 3.3368775e-05)	9.9947693e+04	2.9378101e+02
2.16761e-05    	(-6.5769568e-04 -1.9200710e-02 -1.6515273e-03)	9.9946444e+04	2.9377509e+02
2.20996e-05    	(-9.8238738e-05 -1.9282577e-02 -1.3371061e-03)	9.9945871e+04	2.9376826e+02
2.25231e-05    	(1.8091580e-04 -2.0346575e-02 9.4849109e-05)	9.9943411e+04	2.9375617e+02
2.29466e-05    	(-5.6053962e-04 -2.3877503e-02 -5.1292508e-04)	9.9940579e+04	2.9375037e+02
2.33701e-05    	(-3.7122133e-04 -2.7196387e-02 -1.6343555e-03)	9.9942100e+04	2.9375601e+02
2.37936e-05    	(1.8040261e-03 -2.8087676e-02 -5.1008863e-04)	9.9943580e+04	2.9375923e+02
2.42171e-05    	(2.8974402e-03 -2.6539680e-02 5.4286342e-04)	9.9944587e+04	2.9375815e+02
2.46406e-05    	(3.2594787e-03 -2.7324173e-02 4.2920326e-04)	9.9945132e+04	2.9376005e+02
2.50641e-05    	(2.3351345e-03 -2.8416583e-02 1.1093008e-03)	9.9947426e+04	2.9376270e+02
2.54876e-05    	(1.3009143e-03 -3.0132487e-02 3.8778816e-04)	9.9949709e+04	2.9376595e+02
2.59111e-05    	(1.6124652e-03 -3.1004150e-02 -1.0892522e-04)	9.9952417e+04	2.9377023e+02
2.63345e-05    	(2.1435054e-03 -3.2079681e-02 3.5300687e-05)	9.9955476e+04	2.9377435e+02
2.6758e-05     	(2.1034072e-03 -3.3389967e-02 -7.1951957e-04)	9.9958008e+04	2.9377640e+02
2.71815e-05    	(2.3440943e-03 -3.4929978e-02 -5.9676107e-04)	9.9960279e+04	2.9377944e+02
2.7605e-05     	(2.2267173e-03 -3.6039412e-02 -3.7521006e-04)	9.9962457e+04	2.9378242e+02
2.80285e-05    	(2.1723381e-03 -3.7007490e-02 -6.9361622e-04)	9.9964870e+04	2.9378551e+02
2.8452e-05     	(2.9035502e-03 -3.8090214e-02 1.2200685e-04)	9.9966712e+04	2.9378716e+02
2.88755e-05    	(3.0661240e-03 -3.8532612e-02 1.0193679e-04)	9.9968599e+04	2.9378938e+02
2.9299e-05     	(2.6396748e-03 -3.8784740e-02 -8.6177025e-04)	9.9970065e+04	2.9378980e+02
2.97225e-05    	(2.3101011e-03 -3.9078898e-02 -1.7314466e-04)	9.9971126e+04	2.9379155e+02
3.0146e-05     	(2.4801905e-03 -3.8133045e-02 7.9728995e-04)	9.9972142e+04	2.9379137e+02
3.05695e-05    	(3.0108905e-03 -3.8410353e-02 2.9064659e-04)	9.9972032e+04	2.9378843e+02
3.0993e-05     	(1.8251900e-03 -3.8785556e-02 3.1377520e-04)	9.9971738e+04	2.9378645e+02
3.14165e-05    	(3.2126876e-03 -3.7909143e-02 -1.0050908e-04)	9.9972412e+04	2.9378775e+02
3.184e-05      	(3.5268764e-03 -3.7508041e-02 -3.6131359e-04)	9.9973137e+04	2.9379016e+02
3.22635e-05    	(3.2711623e-03 -3.6128015e-02 7.7813299e-04)	9.9973308e+04	2.9378867e+02
3.2687e-05     	(2.8208086e-03 -3.5409246e-02 1.2949561e-03)	9.9973277e+04	2.9378665e+02
3.31105e-05    	(1.8407892e-03 -3.5040759e-02 -2.6500445e-04)	9.9973130e+04	2.9378701e+02
3.3534e-05     	(1.9029290e-03 -3.4318447e-02 6.2029348e-04)	9.9972659e+04	2.9378290e+02
3.39575e-05    	(2.3113293e-03 -3.4551190e-02 2.0956067e-04)	9.9972715e+04	2.9378379e+02
3.43811e-05    	(2.6711938e-03 -3.4014913e-02 -8.5284599e-04)	9.9972743e+04	2.9378370e+02
3.48046e-05    	(3.2740524e-03 -3.3536337e-02 6.8771709e-04)	9.9973195e+04	2.9378404e+02
3.52281e-05    	(3.3791640e-03 -3.2651819e-02 5.2064591e-04)	9.9973536e+04	2.9378322e+02
3.56516e-05    	(4.0187847e-03 -3.2519592e-02 1.4917758e-04)	9.9973414e+04	2.9378323e+02
3.60751e-05    	(2.9992217e-03 -3.2062581e-02 1.1837598e-04)	9.9973365e+04	2.9378255e+02
3.64986e-05    	(2.2544051e-03 -3.1510898e-02 -2.1173004e-05)	9.9972852e+04	2.9377731e+02
3.69221e-05    	(2.2929485e-03 -3.1680676e-02 3.1773829e-04)	9.9972862e+04	2.9377840e+02
3.73457e-05    	(1.6849835e-03 -3.1372364e-02 8.1149136e-04)	9.9972940e+04	2.9377817e+02
3.77692e-05    	(1.9814093e-03 -3.1188593e-02 1.0480714e-03)	9.9973369e+04	2.9377979e+02
3.81927e-05    	(2.1657646e-03 -2.9974345e-02 6.7798338e-04)	9.9973345e+04	2.9377726e+02
3.86163e-05    	(2.0937584e-03 -2.9563743e-02 3.6014274e-05)	9.9973119e+04	2.9377629e+02
3.90398e-05    	(1.9395389e-03 -2.9201771e-02 -2.3726114e-04)	9.9972358e+04	2.9377289e+02
3.94633e-05    	(2.5418764e-03 -2.8813208e-02 8.4848280e-05)	9.9971944e+04	2.9377132e+02
3.98868e-05    	(1.7908446e-03 -2.8448365e-02 8.3921669e-04)	9.9971628e+04	2.9376994e+02
4.03104e-05    	(1.2456562e-03 -2.7527996e-02 1.0639998e-03)	9.9971662e+04	2.9376944e+02
4.07339e-05    	(1.4929900e-03 -2.6706370e-02 9.5687814e-04)	9.9971543e+04	2.9377004e+02
4.11575e-05    	(1.2523106e-03 -2.5848357e-02 1.0805182e-03)	9.9970878e+04	2.9376681e+02
4.1581e-05     	(1.1959965e-03 -2.5607869e-02 3.6752477e-04)	9.9969975e+04	2.9376309e+02
4.20046e-05    	(1.0410022e-03 -2.4982585e-02 -4.7234895e-04)	9.9969685e+04	2.9376330e+02
4.24281e-05    	(7.3657160e-04 -2.4837307e-02 -4.0323314e-04)	9.9969742e+04	2.9376376e+02
4.26956e-05    	(9.6856842e-04 -2.4472883e-02 -7.2729453e-04)	9.9969291e+04	2.9376134e+02
4.29634e-05    	(9.3775975e-04 -2.4260203e-02 -2.1361205e-04)	9.9969344e+04	2.9376269e+02
4.32314e-05    	(9.6067667e-04 -2.3850849e-02 -6.9330471e-05)	9.9969506e+04	2.9376090e+02
4.34994e-05    	(4.5942783e-04 -2.3596775e-02 8.9749442e-05)	9.9969527e+04	2.9376163e+02
4.37675e-05    	(3.4308820e-04 -2.3185203e-02 1.8671940e-04)	9.9969715e+04	2.9376193e+02
4.40357e-05    	(4.3455868e-04 -2.2953266e-02 2.2545178e-04)	9.9969881e+04	2.9376200e+02
4.43039e-05    	(-1.4104911e-04 -2.2957626e-02 -5.2674026e-06)	9.9969162e+04	2.9375857e+02
4.4572e-05     	(-7.9826278e-04 -2.3498826e-02 2.6921877e-04)	9.9968864e+04	2.9375705e+02
4.48402e-05    	(-9.9337257e-04 -2.3947914e-02 4.8148734e-04)	9.9969348e+04	2.9375905e+02
4.51083e-05    	(-3.1770713e-04 -2.3611115e-02 4.5745239e-04)	9.9969884e+04	2.9376099e+02
4.53764e-05    	(-2.3181956e-04 -2.3382466e-02 1.0778859e-03)	9.9970287e+04	2.9376099e+02
4.56445e-05    	(-6.5313532e-04 -2.3382852e-02 1.2316541e-03)	9.9970509e+04	2.9376118e+02
4.59126e-05    	(-1.0446067e-03 -2.3516774e-02 3.8773330e-04)	9.9970719e+04	2.9376088e+02
4.61806e-05    	(-1.0758301e-03 -2.3692476e-02 -1.6961377e-04)	9.9971338e+04	2.9376302e+02
4.64487e-05    	(-1.0063859e-03 -2.3300043e-02 1.8713262e-04)	9.9971932e+04	2.9376369e+02
4.67168e-05    	(-4.1979859e-04 -2.3273302e-02 5.5834804e-04)	9.9971855e+04	2.9376169e+02
4.69851e-05    	(-1.1322687e-03 -2.3625916e-02 6.5073613e-04)	9.9971885e+04	2.9376185e+02
4.72536e-05    	(-1.1447353e-03 -2.4049259e-02 -1.8315459e-04)	9.9971890e+04	2.9376153e+02
4.75222e-05    	(-1.2715245e-03 -2.4329919e-02 -4.6793899e-04)	9.9972364e+04	2.9376166e+02
4.77909e-05    	(-1.0894734e-03 -2.4728233e-02 3.4971825e-04)	9.9972786e+04	2.9376335e+02
4.80597e-05    	(-6.5650468e-04 -2.4672962e-02 5.4042945e-04)	9.9973089e+04	2.9376216e+02
4.83284e-05    	(-5.8986118e-04 -2.4949827e-02 1.9665972e-04)	9.9973321e+04	2.9376275e+02
4.85971e-05    	(-1.1263329e-03 -2.5331979e-02 3.1516182e-05)	9.9973623e+04	2.9376260e+02
4.88658e-05    	(-1.1859728e-03 -2.5479202e-02 -2.3606658e-04)	9.9974399e+04	2.9376412e+02
4.91345e-05    	(-1.2003433e-03 -2.5479768e-02 6.7036902e-05)	9.9974612e+04	2.9376547e+02
4.94032e-05    	(-1.3264744e-03 -2.5413761e-02 6.0832260e-04)	9.9975107e+04	2.9376576e+02
4.96718e-05    	(-1.0151313e-03 -2.5423971e-02 6.8249254e-04)	9.9975520e+04	2.9376483e+02
4.99405e-05    	(-4.6572661e-04 -2.5528952e-02 7.8708519e-05)	9.9975195e+04	2.9376370e+02
5.02091e-05    	(-4.8375233e-04 -2.6005971e-02 -8.1213435e-05)	9.9975135e+04	2.9376276e+02
5.04776e-05    	(-1.3005668e-03 -2.6466325e-02 -3.0172947e-04)	9.9975736e+04	2.9376491e+02
5.07462e-05    	(-1.9876987e-03 -2.6276006e-02 -4.8867185e-04)	9.9976120e+04	2.9376542e+02
5.10147e-05    	(-1.7317152e-03 -2.6199319e-02 -9.6736835e-04)	9.9976340e+04	2.9376557e+02
5.12833e-05    	(-1.7699491e-03 -2.6283309e-02 -1.1312921e-03)	9.9976422e+04	2.9376406e+02
5.15518e-05    	(-1.0793826e-03 -2.6659590e-02 7.4332378e-06)	9.9976460e+04	2.9376356e+02
5.18203e-05    	(-1.3781346e-03 -2.6870418e-02 5.3339305e-04)	9.9976723e+04	2.9376463e+02
5.20888e-05    	(-1.6349636e-03 -2.6789550e-02 7.5559539e-04)	9.9977031e+04	2.9376472e+02
5.23574e-05    	(-1.7590644e-03 -2.6639810e-02 2.3664160e-04)	9.9977168e+04	2.9376502e+02
5.26259e-05    	(-1.1147371e-03 -2.6754735e-02 -1.2411680e-04)	9.9977455e+04	2.9376537e+02
5.28944e-05    	(-6.8402820e-04 -2.6709322e-02 3.8929573e-04)	9.9977994e+04	2.9376568e+02
5.31629e-05    	(-5.2716584e-04 -2.6467904e-02 2.2467531e-04)	9.9978142e+04	2.9376604e+02
5.34314e-05    	(-7.3497726e-04 -2.6444704e-02 -1.0123073e-04)	9.9977991e+04	2.9376409e+02
5.36999e-05    	(-1.6489918e-03 -2.6637172e-02 -1.1830333e-03)	9.9978223e+04	2.9376489e+02
5.39684e-05    	(-1.5577821e-03 -2.6803893e-02 -1.1859149e-03)	9.9978246e+04	2.9376450e+02
5.4237e-05     	(-1.6679379e-03 -2.6811515e-02 -3.4536945e-04)	9.9978308e+04	2.9376385e+02
5.45055e-05    	(-1.7448339e-03 -2.7163151e-02 6.0309771e-04)	9.9978349e+04	2.9376359e+02
5.47741e-05    	(-1.5189095e-03 -2.7355020e-02 7.7025572e-04)	9.9978558e+04	2.9376477e+02
5.50427e-05    	(-1.6311595e-03 -2.7479392e-02 6.0650856e-04)	9.9978720e+04	2.9376384e+02
5.53112e-05    	(-1.3072662e-03 -2.7615158e-02 9.8104432e-05)	9.9979293e+04	2.9376530e+02
5.55798e-05    	(-1.5300513e-03 -2.7455369e-02 1.5448688e-04)	9.9979736e+04	2.9376563e+02
5.58484e-05    	(-1.4832635e-03 -2.7504935e-02 2.1075688e-04)	9.9980100e+04	2.9376613e+02
5.59184e-05    	(-1.3433978e-03 -2.7530464e-02 7.6815719e-05)	9.9980227e+04	2.9376672e+02
5.59884e-05    	(-1.1955293e-03 -2.7548868e-02 -5.3623788e-05)	9.9980331e+04	2.9376717e+02
5.60585e-05    	(-1.0398420e-03 -2.7559470e-02 -1.8185728e-04)	9.9980458e+04	2.9376755e+02
5.61286e-05    	(-8.7959154e-04 -2.7554000e-02 -2.4770700e-04)	9.9980668e+04	2.9376784e+02
5.61988e-05    	(-7.1827155e-04 -2.7509876e-02 -2.3653039e-04)	9.9980821e+04	2.9376801e+02
5.62689e-05    	(-5.3899874e-04 -2.7453551e-02 -1.9871119e-04)	9.9980859e+04	2.9376760e+02
5.63391e-05    	(-4.1995348e-04 -2.7427235e-02 -2.2014630e-04)	9.9980864e+04	2.9376685e+02
5.64093e-05    	(-4.0228943e-04 -2.7466042e-02 -3.0260186e-04)	9.9980860e+04	2.9376790e+02
5.64794e-05    	(-4.3848518e-04 -2.7538111e-02 -3.9368659e-04)	9.9981036e+04	2.9376756e+02
5.65496e-05    	(-4.9043672e-04 -2.7591006e-02 -4.7907325e-04)	9.9981091e+04	2.9376752e+02
5.66197e-05    	(-6.1922967e-04 -2.7637157e-02 -5.3042797e-04)	9.9981145e+04	2.9376790e+02
5.66899e-05    	(-8.0893748e-04 -2.7679172e-02 -5.1168877e-04)	9.9981211e+04	2.9376726e+02
5.67601e-05    	(-9.9035547e-04 -2.7684199e-02 -4.2272014e-04)	9.9981302e+04	2.9376765e+02
5.68303e-05    	(-1.1746602e-03 -2.7657556e-02 -3.0675319e-04)	9.9981438e+04	2.9376815e+02
5.69004e-05    	(-1.3945023e-03 -2.7628384e-02 -2.0356912e-04)	9.9981522e+04	2.9376811e+02
5.69706e-05    	(-1.5833468e-03 -2.7615487e-02 -1.5193686e-04)	9.9981557e+04	2.9376812e+02
5.70408e-05    	(-1.6986893e-03 -2.7637359e-02 -1.2793042e-04)	9.9981594e+04	2.9376875e+02
5.71109e-05    	(-1.7345409e-03 -2.7708038e-02 -9.0794197e-05)	9.9981701e+04	2.9376795e+02
5.71811e-05    	(-1.7147281e-03 -2.7810287e-02 -3.8394377e-05)	9.9981702e+04	2.9376784e+02
5.72512e-05    	(-1.6342063e-03 -2.7933837e-02 5.7610822e-05)	9.9981701e+04	2.9376801e+02
5.73214e-05    	(-1.5143180e-03 -2.8092716e-02 1.8806935e-04)	9.9981840e+04	2.9376819e+02
5.73916e-05    	(-1.4053380e-03 -2.8235316e-02 3.0967097e-04)	9.9981960e+04	2.9376829e+02
5.74617e-05    	(-1.3188030e-03 -2.8329977e-02 3.6976445e-04)	9.9982076e+04	2.9376771e+02
5.75319e-05    	(-1.1715271e-03 -2.8415909e-02 3.5050266e-04)	9.9982120e+04	2.9376846e+02
5.76021e-05    	(-9.3299439e-04 -2.8527308e-02 2.4759910e-04)	9.9982261e+04	2.9376851e+02
5.76722e-05    	(-7.1268199e-04 -2.8641077e-02 7.9081007e-05)	9.9982161e+04	2.9376717e+02
5.77424e-05    	(-5.9772901e-04 -2.8793036e-02 -1.1213151e-04)	9.9982081e+04	2.9376756e+02
5.78126e-05    	(-5.6075538e-04 -2.9004110e-02 -2.6475877e-04)	9.9982218e+04	2.9376778e+02
5.78827e-05    	(-5.7667977e-04 -2.9215136e-02 -3.2225408e-04)	9.9982458e+04	2.9376899e+02
5.79529e-05    	(-5.9752405e-04 -2.9348447e-02 -3.1170294e-04)	9.9982706e+04	2.9376972e+02
5.8023e-05     	(-5.9705488e-04 -2.9395574e-02 -2.5090430e-04)	9.9982955e+04	2.9377026e+02
5.80932e-05    	(-5.9971166e-04 -2.9380133e-02 -1.5323838e-04)	9.9983150e+04	2.9377065e+02
5.81634e-05    	(-6.3538476e-04 -2.9356235e-02 -8.3337709e-05)	9.9983231e+04	2.9377036e+02
5.82335e-05    	(-6.8087080e-04 -2.9374468e-02 -8.4535623e-05)	9.9983414e+04	2.9377138e+02
5.83037e-05    	(-6.9894598e-04 -2.9411494e-02 -1.1137726e-04)	9.9983690e+04	2.9377187e+02
