# Region type : patch wOutlet
# Faces  :     2574
# Area   :     7.7677716e-05
# Time         	sum(phi)
0              	0.0000000e+00
4.83925e-07    	4.3885531e-08
8.8826e-07     	5.2995909e-08
1.29259e-06    	4.5796530e-08
1.69693e-06    	3.9325108e-08
2.10126e-06    	3.4416047e-08
2.5056e-06     	3.1642056e-08
2.90993e-06    	1.6129369e-07
3.31427e-06    	3.0121252e-07
3.7186e-06     	3.7724328e-07
4.12294e-06    	9.4112137e-07
4.52728e-06    	2.9318462e-06
4.9316e-06     	5.8319646e-06
5.33592e-06    	8.3701551e-06
5.74025e-06    	9.8110327e-06
6.1446e-06     	9.9188464e-06
6.54898e-06    	8.8737312e-06
6.95339e-06    	6.9697527e-06
7.35798e-06    	4.9635008e-06
7.76253e-06    	3.9355845e-06
8.16708e-06    	4.1852274e-06
8.57163e-06    	5.7473453e-06
8.97618e-06    	7.6437473e-06
9.38073e-06    	8.9600481e-06
9.78526e-06    	8.6735887e-06
1.01898e-05    	6.8907324e-06
1.05943e-05    	4.5935817e-06
1.09989e-05    	3.1088012e-06
1.14035e-05    	3.1693763e-06
1.1808e-05     	4.2719058e-06
1.22126e-05    	5.4939624e-06
1.26172e-05    	5.9520719e-06
1.30218e-05    	5.2849099e-06
1.34266e-05    	4.1389276e-06
1.38313e-05    	3.3609051e-06
1.42361e-05    	3.3528804e-06
1.4641e-05     	4.0804819e-06
1.50458e-05    	5.0220384e-06
1.54506e-05    	5.6031880e-06
1.58553e-05    	5.5822987e-06
1.62601e-05    	5.1328686e-06
1.66649e-05    	4.8290509e-06
1.70696e-05    	5.0217784e-06
1.74743e-05    	5.5711791e-06
1.78791e-05    	6.1824634e-06
1.82838e-05    	6.4949550e-06
1.86885e-05    	6.5053872e-06
1.90933e-05    	6.4528547e-06
1.9498e-05     	6.5455887e-06
1.99027e-05    	6.8612252e-06
2.03075e-05    	7.3683967e-06
2.07124e-05    	7.8375503e-06
2.11172e-05    	8.0163169e-06
2.1522e-05     	7.9549349e-06
2.19269e-05    	7.9521175e-06
2.23317e-05    	8.1553142e-06
2.27365e-05    	8.5328316e-06
2.31414e-05    	8.9747451e-06
2.35462e-05    	9.3381061e-06
2.3951e-05     	9.5962879e-06
2.43559e-05    	9.7376418e-06
2.47607e-05    	9.9052830e-06
2.51655e-05    	1.0123098e-05
2.55703e-05    	1.0359690e-05
2.59751e-05    	1.0586966e-05
2.63799e-05    	1.0812633e-05
2.67847e-05    	1.1030207e-05
2.71895e-05    	1.1233442e-05
2.75943e-05    	1.1384121e-05
2.79992e-05    	1.1479139e-05
2.84041e-05    	1.1498098e-05
2.8809e-05     	1.1501223e-05
2.92139e-05    	1.1506539e-05
2.96187e-05    	1.1491247e-05
3.00236e-05    	1.1450956e-05
3.04285e-05    	1.1338322e-05
3.08334e-05    	1.1171062e-05
3.12383e-05    	1.0978873e-05
3.16432e-05    	1.0767825e-05
3.20481e-05    	1.0558240e-05
3.2453e-05     	1.0324485e-05
3.2858e-05     	1.0096893e-05
3.32629e-05    	9.8649101e-06
3.36678e-05    	9.6087038e-06
3.40728e-05    	9.3379042e-06
3.44777e-05    	9.0831529e-06
3.48827e-05    	8.8381368e-06
3.52876e-05    	8.6346178e-06
3.56926e-05    	8.4107682e-06
3.60976e-05    	8.1853659e-06
3.65026e-05    	7.9854435e-06
3.69075e-05    	7.7992326e-06
3.73125e-05    	7.6167989e-06
3.77175e-05    	7.4539227e-06
3.81225e-05    	7.2721382e-06
3.85274e-05    	7.0940289e-06
3.89324e-05    	6.9227849e-06
3.93374e-05    	6.7452682e-06
3.97423e-05    	6.5705559e-06
4.01473e-05    	6.3987990e-06
4.05523e-05    	6.2141208e-06
4.09572e-05    	6.0286671e-06
4.13622e-05    	5.8399636e-06
4.17672e-05    	5.6579631e-06
4.21722e-05    	5.4689044e-06
4.25771e-05    	5.2758551e-06
4.29821e-05    	5.0797763e-06
4.33871e-05    	4.9011907e-06
4.37921e-05    	4.7235712e-06
4.41971e-05    	4.5464811e-06
4.4602e-05     	4.3801867e-06
4.5007e-05     	4.2077055e-06
4.5412e-05     	4.0466908e-06
4.5817e-05     	3.9034873e-06
4.6222e-05     	3.7716461e-06
4.6627e-05     	3.6395690e-06
4.70319e-05    	3.5131755e-06
4.74369e-05    	3.3898299e-06
4.78419e-05    	3.2832247e-06
4.82469e-05    	3.1937339e-06
4.86519e-05    	3.1156575e-06
4.90569e-05    	3.0189280e-06
4.94618e-05    	2.9306720e-06
4.98668e-05    	2.8621787e-06
5.02718e-05    	2.8163564e-06
5.06768e-05    	2.7776749e-06
5.10818e-05    	2.7215412e-06
5.14868e-05    	2.6669785e-06
5.18918e-05    	2.6370806e-06
5.22967e-05    	2.6321683e-06
5.27017e-05    	2.6372297e-06
5.31067e-05    	2.6334388e-06
5.35117e-05    	2.6100348e-06
5.39167e-05    	2.5876209e-06
5.43217e-05    	2.5979106e-06
5.47266e-05    	2.6294620e-06
5.51316e-05    	2.6574722e-06
5.55366e-05    	2.6727105e-06
5.59416e-05    	2.6798485e-06
5.63466e-05    	2.7009180e-06
5.67516e-05    	2.7403252e-06
5.71566e-05    	2.7990123e-06
5.75615e-05    	2.8541566e-06
5.79665e-05    	2.8872603e-06
5.83715e-05    	2.9170209e-06
5.87765e-05    	2.9500863e-06
5.91815e-05    	3.0001375e-06
5.95865e-05    	3.0570555e-06
5.99914e-05    	3.1085710e-06
6.03964e-05    	3.1498735e-06
6.08014e-05    	3.1890773e-06
6.12064e-05    	3.2345675e-06
6.16114e-05    	3.2912315e-06
6.20164e-05    	3.3531127e-06
6.24214e-05    	3.3965915e-06
6.28263e-05    	3.4398866e-06
6.32313e-05    	3.4949827e-06
6.36363e-05    	3.5562533e-06
6.40413e-05    	3.6071668e-06
6.44463e-05    	3.6492213e-06
6.48513e-05    	3.6909102e-06
6.52563e-05    	3.7331382e-06
6.56613e-05    	3.7850523e-06
6.60663e-05    	3.8331492e-06
6.64713e-05    	3.8687060e-06
6.68763e-05    	3.8918613e-06
6.72813e-05    	3.9115814e-06
6.76863e-05    	3.9238292e-06
6.80913e-05    	3.9332529e-06
6.84963e-05    	3.9371412e-06
6.89013e-05    	3.9385321e-06
6.93063e-05    	3.9318730e-06
6.97113e-05    	3.9230285e-06
7.01163e-05    	3.9136175e-06
7.05214e-05    	3.9100964e-06
7.09264e-05    	3.9025173e-06
7.13314e-05    	3.8877465e-06
7.17364e-05    	3.8704605e-06
7.21414e-05    	3.8493978e-06
7.25464e-05    	3.8278086e-06
7.29514e-05    	3.8048185e-06
7.33564e-05    	3.7846190e-06
7.37615e-05    	3.7615463e-06
7.41665e-05    	3.7337808e-06
7.45715e-05    	3.7005929e-06
7.49765e-05    	3.6638766e-06
7.53815e-05    	3.6284166e-06
7.57865e-05    	3.5946972e-06
7.61916e-05    	3.5531535e-06
7.65966e-05    	3.5065048e-06
7.70016e-05    	3.4578320e-06
7.74066e-05    	3.4085459e-06
7.78116e-05    	3.3556522e-06
7.82167e-05    	3.3018281e-06
7.86217e-05    	3.2463171e-06
7.90267e-05    	3.1845001e-06
7.94317e-05    	3.1156580e-06
7.98367e-05    	3.0438683e-06
8.02418e-05    	2.9757503e-06
8.06468e-05    	2.9102134e-06
8.10518e-05    	2.8372513e-06
8.14568e-05    	2.7572116e-06
8.18618e-05    	2.6770512e-06
8.22669e-05    	2.6012373e-06
8.26719e-05    	2.5293868e-06
8.30769e-05    	2.4565528e-06
8.34819e-05    	2.3799979e-06
8.38869e-05    	2.3003235e-06
8.42919e-05    	2.2229547e-06
8.46969e-05    	2.1511839e-06
8.51019e-05    	2.0786772e-06
8.55069e-05    	2.0025125e-06
8.59119e-05    	1.9222139e-06
8.63169e-05    	1.8397040e-06
8.67219e-05    	1.7579619e-06
8.71269e-05    	1.6802963e-06
8.75319e-05    	1.6033910e-06
8.79369e-05    	1.5244610e-06
8.83419e-05    	1.4412744e-06
8.87469e-05    	1.3554467e-06
8.91519e-05    	1.2723886e-06
8.95569e-05    	1.2000092e-06
8.99619e-05    	1.1337859e-06
9.03669e-05    	1.0645536e-06
9.07719e-05    	9.8621691e-07
9.11769e-05    	9.0365769e-07
9.15819e-05    	8.2477924e-07
9.19869e-05    	7.5856337e-07
9.23919e-05    	7.0487169e-07
9.27969e-05    	6.5350062e-07
9.32019e-05    	5.9743181e-07
9.36069e-05    	5.3682491e-07
9.40119e-05    	4.7850312e-07
9.44169e-05    	4.3393224e-07
9.4822e-05     	4.1063374e-07
9.5227e-05     	3.9854891e-07
9.5632e-05     	3.7665255e-07
9.6037e-05     	3.4165827e-07
9.6442e-05     	3.0473048e-07
9.68471e-05    	2.7448875e-07
9.72521e-05    	2.6193456e-07
9.76571e-05    	2.6465247e-07
9.80621e-05    	2.7008672e-07
9.84671e-05    	2.6863285e-07
9.88722e-05    	2.6301237e-07
9.92772e-05    	2.6146269e-07
9.96822e-05    	2.7636016e-07
0.000100087    	3.1928790e-07
0.000100492    	3.7136591e-07
0.000100897    	4.0817468e-07
0.000101302    	4.2246016e-07
0.000101707    	4.2813006e-07
0.000102112    	4.4730942e-07
0.000102517    	4.8898175e-07
0.000102922    	5.4480974e-07
0.000103327    	6.0075151e-07
0.000103732    	6.4504272e-07
0.000104137    	6.7602285e-07
0.000104542    	7.1016508e-07
0.000104947    	7.6083457e-07
0.000105352    	8.3024174e-07
0.000105757    	9.0253642e-07
0.000106163    	9.6864323e-07
0.000106568    	1.0254407e-06
0.000106973    	1.0858615e-06
0.000107378    	1.1626426e-06
0.000107783    	1.2479257e-06
0.000108188    	1.3327553e-06
0.000108593    	1.4077314e-06
0.000108998    	1.4775843e-06
0.000109403    	1.5575387e-06
0.000109808    	1.6559818e-06
0.000110213    	1.7587703e-06
0.000110618    	1.8484298e-06
0.000111023    	1.9216423e-06
0.000111428    	1.9883677e-06
0.000111833    	2.0699452e-06
0.000112238    	2.1684685e-06
0.000112643    	2.2660363e-06
0.000113048    	2.3489818e-06
0.000113453    	2.4193151e-06
0.000113858    	2.4918244e-06
0.000114263    	2.5767819e-06
0.000114668    	2.6666101e-06
0.000115073    	2.7492750e-06
0.000115478    	2.8225460e-06
0.000115883    	2.8938683e-06
0.000116288    	2.9724117e-06
0.000116693    	3.0543075e-06
0.000117098    	3.1326006e-06
0.000117503    	3.2079213e-06
0.000117908    	3.2823374e-06
0.000118313    	3.3588595e-06
0.000118718    	3.4381667e-06
0.000119123    	3.5174582e-06
0.000119528    	3.5923893e-06
0.000119933    	3.6625054e-06
0.000120338    	3.7321164e-06
0.000120743    	3.8036357e-06
0.000121148    	3.8765315e-06
0.000121553    	3.9471424e-06
0.000121958    	4.0138626e-06
0.000122363    	4.0763297e-06
0.000122768    	4.1355245e-06
0.000123173    	4.1949679e-06
0.000123578    	4.2553147e-06
0.000123983    	4.3186449e-06
0.000124388    	4.3814755e-06
0.000124793    	4.4382615e-06
0.000125198    	4.4857225e-06
0.000125603    	4.5287951e-06
0.000126008    	4.5724033e-06
0.000126413    	4.6209135e-06
0.000126818    	4.6766433e-06
0.000127224    	4.7304285e-06
0.000127629    	4.7789746e-06
0.000128034    	4.8220653e-06
0.000128439    	4.8609553e-06
0.000128844    	4.8952096e-06
0.000129249    	4.9222890e-06
0.000129654    	4.9433777e-06
0.000130059    	4.9526545e-06
0.000130464    	4.9579690e-06
0.000130869    	4.9684153e-06
0.000131274    	4.9874072e-06
0.000131679    	5.0026611e-06
0.000132084    	5.0074917e-06
0.000132489    	5.0023888e-06
0.000132894    	4.9867858e-06
0.000133299    	4.9680121e-06
0.000133704    	4.9560104e-06
0.000134109    	4.9517983e-06
0.000134514    	4.9484775e-06
0.000134919    	4.9436970e-06
0.000135324    	4.9311814e-06
0.000135729    	4.9098707e-06
0.000136134    	4.8894206e-06
0.000136539    	4.8790244e-06
0.000136944    	4.8765021e-06
0.000137349    	4.8775684e-06
0.000137754    	4.8769413e-06
0.000138159    	4.8713735e-06
0.000138564    	4.8656579e-06
0.000138969    	4.8656863e-06
0.000139374    	4.8730238e-06
0.000139779    	4.8847451e-06
0.000140184    	4.8953727e-06
0.000140589    	4.9013044e-06
0.000140994    	4.9074132e-06
0.000141399    	4.9188805e-06
0.000141804    	4.9359548e-06
0.000142209    	4.9544632e-06
0.000142614    	4.9699347e-06
0.000143019    	4.9832850e-06
0.000143424    	5.0008912e-06
0.000143829    	5.0248888e-06
0.000144234    	5.0522882e-06
0.000144639    	5.0773557e-06
0.000145044    	5.0993204e-06
0.000145449    	5.1224891e-06
0.000145854    	5.1537829e-06
0.000146259    	5.1930641e-06
0.000146664    	5.2332090e-06
0.000147069    	5.2682474e-06
0.000147474    	5.2995819e-06
0.00014788     	5.3340964e-06
0.000148285    	5.3781050e-06
0.00014869     	5.4311305e-06
0.000149095    	5.4855823e-06
0.0001495      	5.5345199e-06
0.000149905    	5.5786113e-06
0.00015031     	5.6241079e-06
0.000150715    	5.6792649e-06
0.00015112     	5.7453900e-06
0.000151525    	5.8154999e-06
0.00015193     	5.8817609e-06
0.000152335    	5.9423561e-06
0.00015274     	6.0017887e-06
0.000153145    	6.0681825e-06
0.00015355     	6.1462369e-06
0.000153955    	6.2291080e-06
0.00015436     	6.3101838e-06
0.000154765    	6.3843959e-06
0.00015517     	6.4550372e-06
0.000155575    	6.5285217e-06
0.00015598     	6.6122423e-06
0.000156385    	6.7027493e-06
0.00015679     	6.7934004e-06
0.000157195    	6.8786928e-06
0.0001576      	6.9560178e-06
0.000158005    	7.0305975e-06
0.00015841     	7.1117956e-06
0.000158815    	7.2011834e-06
0.00015922     	7.2939973e-06
0.000159625    	7.3835974e-06
0.00016003     	7.4638408e-06
0.000160435    	7.5357616e-06
0.00016084     	7.6086229e-06
0.000161245    	7.6931017e-06
0.00016165     	7.7876427e-06
0.000162055    	7.8836540e-06
0.00016246     	7.9704923e-06
0.000162865    	8.0440255e-06
0.00016327     	8.1110980e-06
0.000163675    	8.1826634e-06
0.00016408     	8.2698179e-06
0.000164485    	8.3655851e-06
0.00016489     	8.4636807e-06
0.000165295    	8.5513375e-06
0.0001657      	8.6285414e-06
0.000166105    	8.6987837e-06
0.00016651     	8.7746386e-06
0.000166915    	8.8627131e-06
0.00016732     	8.9569142e-06
0.000167725    	9.0503283e-06
0.00016813     	9.1343035e-06
0.000168535    	9.2084321e-06
0.00016894     	9.2790897e-06
0.000169345    	9.3558830e-06
0.00016975     	9.4460290e-06
0.000170155    	9.5404419e-06
0.00017056     	9.6332581e-06
0.000170965    	9.7171917e-06
0.00017137     	9.7930883e-06
0.000171775    	9.8644214e-06
0.00017218     	9.9377690e-06
0.000172585    	1.0016741e-05
0.00017299     	1.0098264e-05
0.000173395    	1.0180437e-05
0.0001738      	1.0259453e-05
0.000174205    	1.0329611e-05
0.00017461     	1.0391239e-05
0.000175015    	1.0452451e-05
0.00017542     	1.0520346e-05
0.000175825    	1.0595110e-05
0.00017623     	1.0674104e-05
0.000176635    	1.0750092e-05
0.00017704     	1.0819880e-05
0.000177445    	1.0880513e-05
0.00017785     	1.0933321e-05
0.000178255    	1.0985729e-05
0.00017866     	1.1043639e-05
0.000179065    	1.1109710e-05
0.00017947     	1.1175975e-05
0.000179875    	1.1235877e-05
0.00018028     	1.1284416e-05
0.000180685    	1.1325609e-05
0.00018109     	1.1364970e-05
0.000181495    	1.1413373e-05
0.0001819      	1.1469755e-05
0.000182305    	1.1528718e-05
0.00018271     	1.1585759e-05
0.000183115    	1.1635415e-05
0.00018352     	1.1674969e-05
0.000183925    	1.1708084e-05
0.00018433     	1.1743424e-05
0.000184735    	1.1785976e-05
0.00018514     	1.1835626e-05
0.000185545    	1.1888622e-05
0.00018595     	1.1936501e-05
0.000186355    	1.1973280e-05
0.00018676     	1.2001855e-05
0.000187165    	1.2028180e-05
0.00018757     	1.2062641e-05
0.000187975    	1.2108518e-05
0.00018838     	1.2161138e-05
0.000188785    	1.2214837e-05
0.00018919     	1.2258379e-05
0.000189595    	1.2289200e-05
0.00019        	1.2315689e-05
0.000190405    	1.2347419e-05
0.00019081     	1.2393085e-05
0.000191215    	1.2450037e-05
0.00019162     	1.2506876e-05
0.000192025    	1.2551909e-05
0.00019243     	1.2587132e-05
0.000192835    	1.2618059e-05
0.00019324     	1.2653756e-05
0.000193645    	1.2702893e-05
0.00019405     	1.2766945e-05
0.000194455    	1.2834674e-05
0.00019486     	1.2892614e-05
0.000195265    	1.2938059e-05
0.00019567     	1.2974024e-05
0.000196075    	1.3013514e-05
0.00019648     	1.3063735e-05
0.000196885    	1.3126095e-05
0.00019729     	1.3194150e-05
0.000197695    	1.3258479e-05
0.0001981      	1.3315036e-05
0.000198505    	1.3362122e-05
0.00019891     	1.3410516e-05
0.000199315    	1.3466866e-05
0.00019972     	1.3532841e-05
0.000200125    	1.3605259e-05
0.00020053     	1.3673973e-05
0.000200935    	1.3736948e-05
0.00020134     	1.3791771e-05
0.000201745    	1.3847774e-05
0.00020215     	1.3905278e-05
0.000202555    	1.3969261e-05
0.00020296     	1.4041824e-05
0.000203365    	1.4112468e-05
0.00020377     	1.4178150e-05
0.000204175    	1.4235910e-05
0.00020458     	1.4294149e-05
0.000204985    	1.4355138e-05
0.00020539     	1.4422677e-05
0.000205795    	1.4495804e-05
0.0002062      	1.4569575e-05
0.000206605    	1.4636964e-05
0.00020701     	1.4697264e-05
0.000207415    	1.4756566e-05
0.00020782     	1.4814929e-05
0.000208225    	1.4879634e-05
0.00020863     	1.4953391e-05
0.000209035    	1.5025278e-05
0.00020944     	1.5088887e-05
0.000209845    	1.5144813e-05
0.00021025     	1.5201458e-05
0.000210655    	1.5260802e-05
0.00021106     	1.5328143e-05
0.000211465    	1.5401882e-05
0.00021187     	1.5472435e-05
0.000212275    	1.5533658e-05
0.00021268     	1.5586815e-05
0.000213085    	1.5639194e-05
0.00021349     	1.5695642e-05
0.000213895    	1.5759665e-05
0.0002143      	1.5826240e-05
0.000214705    	1.5888030e-05
0.00021511     	1.5941916e-05
0.000215515    	1.5992628e-05
0.00021592     	1.6046936e-05
0.000216325    	1.6108141e-05
0.00021673     	1.6178371e-05
0.000217135    	1.6248753e-05
0.00021754     	1.6312653e-05
0.000217945    	1.6364086e-05
0.00021835     	1.6411525e-05
0.000218755    	1.6463940e-05
0.00021916     	1.6527988e-05
0.000219565    	1.6601803e-05
0.00021997     	1.6672653e-05
0.000220375    	1.6734763e-05
0.00022078     	1.6785613e-05
0.000221185    	1.6835721e-05
0.00022159     	1.6894432e-05
0.000221995    	1.6964704e-05
0.0002224      	1.7044723e-05
0.000222805    	1.7123654e-05
0.00022321     	1.7194061e-05
0.000223615    	1.7253799e-05
0.00022402     	1.7311878e-05
0.000224425    	1.7379753e-05
0.00022483     	1.7458984e-05
0.000225235    	1.7544037e-05
0.00022564     	1.7624789e-05
0.000226045    	1.7697255e-05
0.00022645     	1.7761910e-05
0.000226855    	1.7830522e-05
0.00022726     	1.7909204e-05
0.000227665    	1.7999024e-05
0.00022807     	1.8093615e-05
0.000228475    	1.8184064e-05
0.00022888     	1.8267154e-05
0.000229285    	1.8342516e-05
0.00022969     	1.8421747e-05
0.000230095    	1.8507955e-05
0.0002305      	1.8603367e-05
0.000230905    	1.8702025e-05
0.00023131     	1.8795627e-05
0.000231715    	1.8884407e-05
0.00023212     	1.8969738e-05
0.000232525    	1.9060188e-05
0.00023293     	1.9156453e-05
0.000233335    	1.9260098e-05
0.00023374     	1.9366137e-05
0.000234145    	1.9469418e-05
0.00023455     	1.9567773e-05
0.000234955    	1.9665484e-05
0.00023536     	1.9765362e-05
0.000235765    	1.9868008e-05
0.00023617     	1.9976787e-05
0.000236575    	2.0089241e-05
0.00023698     	2.0199609e-05
0.000237385    	2.0309254e-05
0.00023779     	2.0418156e-05
0.000238195    	2.0525185e-05
0.0002386      	2.0633791e-05
0.000239005    	2.0748444e-05
0.00023941     	2.0867085e-05
0.000239815    	2.0984866e-05
0.00024022     	2.1102618e-05
0.000240625    	2.1218436e-05
0.00024103     	2.1334464e-05
0.000241435    	2.1452230e-05
0.00024184     	2.1575341e-05
0.000242245    	2.1696883e-05
0.00024265     	2.1820379e-05
0.000243055    	2.1943303e-05
0.00024346     	2.2065301e-05
0.000243865    	2.2187818e-05
0.00024427     	2.2311394e-05
0.000244675    	2.2434209e-05
0.00024508     	2.2555996e-05
0.000245485    	2.2681728e-05
0.00024589     	2.2809473e-05
0.000246295    	2.2938754e-05
0.0002467      	2.3067302e-05
0.000247105    	2.3193251e-05
0.00024751     	2.3313899e-05
0.000247915    	2.3434571e-05
0.00024832     	2.3557972e-05
0.000248725    	2.3686890e-05
0.00024913     	2.3816440e-05
0.000249535    	2.3945455e-05
0.00024994     	2.4068234e-05
0.000250345    	2.4184646e-05
0.00025075     	2.4302509e-05
0.000251155    	2.4425759e-05
0.00025156     	2.4554923e-05
0.000251965    	2.4684655e-05
0.000252369    	2.4810303e-05
0.000252774    	2.4928674e-05
0.000253179    	2.5043219e-05
0.000253584    	2.5157347e-05
0.000253989    	2.5275090e-05
0.000254394    	2.5395827e-05
0.000254799    	2.5521118e-05
0.000255204    	2.5643398e-05
0.000255609    	2.5761414e-05
0.000256014    	2.5873916e-05
0.000256419    	2.5981537e-05
0.000256824    	2.6089644e-05
0.000257229    	2.6202630e-05
0.000257634    	2.6324696e-05
0.000258039    	2.6448423e-05
0.000258444    	2.6566048e-05
0.000258849    	2.6672439e-05
0.000259254    	2.6769309e-05
0.000259659    	2.6870909e-05
0.000260064    	2.6981733e-05
0.000260469    	2.7102934e-05
0.000260874    	2.7223731e-05
0.000261279    	2.7333040e-05
0.000261684    	2.7428359e-05
0.000262089    	2.7522385e-05
0.000262494    	2.7624407e-05
0.000262899    	2.7737039e-05
0.000263304    	2.7854235e-05
0.000263709    	2.7964343e-05
0.000264114    	2.8062733e-05
0.000264519    	2.8149222e-05
0.000264924    	2.8237980e-05
0.000265329    	2.8339945e-05
0.000265734    	2.8452565e-05
0.000266139    	2.8565863e-05
0.000266544    	2.8668954e-05
0.000266949    	2.8753795e-05
0.000267354    	2.8833109e-05
0.000267759    	2.8924118e-05
0.000268164    	2.9028897e-05
0.000268569    	2.9141476e-05
0.000268974    	2.9245092e-05
0.000269379    	2.9331848e-05
0.000269784    	2.9406186e-05
0.000270189    	2.9487401e-05
0.000270594    	2.9583160e-05
0.000270998    	2.9693456e-05
0.000271403    	2.9801906e-05
0.000271808    	2.9892548e-05
0.000272213    	2.9966459e-05
0.000272618    	3.0038075e-05
0.000273023    	3.0123026e-05
0.000273428    	3.0226752e-05
0.000273833    	3.0336192e-05
0.000274238    	3.0434461e-05
0.000274643    	3.0514357e-05
0.000275048    	3.0581334e-05
0.000275453    	3.0653717e-05
0.000275858    	3.0746149e-05
0.000276263    	3.0851878e-05
0.000276668    	3.0955817e-05
0.000277073    	3.1044498e-05
0.000277478    	3.1113570e-05
0.000277883    	3.1179733e-05
0.000278288    	3.1260088e-05
0.000278693    	3.1358394e-05
0.000279098    	3.1460007e-05
0.000279503    	3.1550673e-05
0.000279908    	3.1622626e-05
0.000280313    	3.1686917e-05
0.000280718    	3.1761672e-05
0.000281123    	3.1849701e-05
0.000281528    	3.1945566e-05
0.000281933    	3.2037560e-05
0.000282338    	3.2111588e-05
0.000282743    	3.2173325e-05
0.000283148    	3.2238954e-05
0.000283553    	3.2319992e-05
0.000283958    	3.2409936e-05
0.000284363    	3.2497508e-05
0.000284768    	3.2569742e-05
0.000285173    	3.2629171e-05
0.000285578    	3.2690784e-05
0.000285983    	3.2763740e-05
0.000286388    	3.2846179e-05
0.000286793    	3.2929558e-05
0.000287198    	3.2997859e-05
0.000287603    	3.3055108e-05
0.000288008    	3.3111115e-05
0.000288413    	3.3176612e-05
0.000288818    	3.3252835e-05
0.000289223    	3.3326170e-05
0.000289627    	3.3387713e-05
0.000290032    	3.3438712e-05
0.000290437    	3.3487844e-05
0.000290842    	3.3548138e-05
0.000291247    	3.3614543e-05
0.000291652    	3.3678481e-05
0.000292057    	3.3731798e-05
0.000292462    	3.3777808e-05
0.000292867    	3.3824282e-05
0.000293272    	3.3877325e-05
0.000293677    	3.3931248e-05
0.000294082    	3.3981652e-05
0.000294487    	3.4027897e-05
0.000294892    	3.4069538e-05
0.000295297    	3.4110475e-05
0.000295702    	3.4153727e-05
0.000296107    	3.4195323e-05
0.000296512    	3.4233769e-05
0.000296917    	3.4269938e-05
0.000297322    	3.4303723e-05
0.000297727    	3.4336257e-05
0.000298132    	3.4367927e-05
0.000298537    	3.4396299e-05
0.000298942    	3.4424363e-05
0.000299347    	3.4451175e-05
0.000299752    	3.4476372e-05
0.000300157    	3.4499497e-05
0.000300562    	3.4519101e-05
0.000300967    	3.4536120e-05
0.000301372    	3.4552859e-05
0.000301777    	3.4569923e-05
0.000302182    	3.4584394e-05
0.000302587    	3.4595188e-05
0.000302992    	3.4604478e-05
0.000303397    	3.4612012e-05
0.000303802    	3.4618484e-05
0.000304207    	3.4621744e-05
0.000304612    	3.4623006e-05
0.000305017    	3.4623118e-05
0.000305422    	3.4622114e-05
0.000305827    	3.4618668e-05
0.000306232    	3.4612825e-05
0.000306637    	3.4606014e-05
0.000307042    	3.4597494e-05
0.000307447    	3.4587360e-05
0.000307852    	3.4574664e-05
0.000308258    	3.4559994e-05
0.000308663    	3.4544555e-05
0.000309068    	3.4527905e-05
0.000309473    	3.4509510e-05
0.000309878    	3.4489145e-05
0.000310283    	3.4467316e-05
0.000310688    	3.4444369e-05
0.000311093    	3.4420389e-05
0.000311498    	3.4395193e-05
0.000311903    	3.4368166e-05
0.000312308    	3.4339737e-05
0.000312713    	3.4310592e-05
0.000313118    	3.4279221e-05
0.000313523    	3.4246485e-05
0.000313928    	3.4212380e-05
0.000314333    	3.4176661e-05
0.000314738    	3.4140640e-05
0.000315143    	3.4103414e-05
0.000315548    	3.4065073e-05
0.000315953    	3.4026115e-05
0.000316358    	3.3986512e-05
0.000316763    	3.3945357e-05
0.000317168    	3.3903608e-05
0.000317573    	3.3862603e-05
0.000317978    	3.3819832e-05
0.000318383    	3.3775157e-05
0.000318788    	3.3730007e-05
0.000319193    	3.3684760e-05
0.000319598    	3.3637334e-05
0.000320003    	3.3588639e-05
0.000320408    	3.3539775e-05
0.000320813    	3.3490548e-05
0.000321218    	3.3441774e-05
0.000321623    	3.3393364e-05
0.000322028    	3.3343632e-05
0.000322433    	3.3293230e-05
0.000322838    	3.3241369e-05
0.000323243    	3.3189613e-05
0.000323648    	3.3138375e-05
0.000324053    	3.3088094e-05
0.000324458    	3.3036990e-05
0.000324863    	3.2985031e-05
0.000325268    	3.2932342e-05
0.000325673    	3.2878919e-05
0.000326078    	3.2826384e-05
0.000326483    	3.2775281e-05
0.000326888    	3.2723907e-05
0.000327293    	3.2672660e-05
0.000327698    	3.2620544e-05
0.000328103    	3.2568053e-05
0.000328508    	3.2515704e-05
0.000328913    	3.2464255e-05
0.000329318    	3.2412889e-05
0.000329723    	3.2360958e-05
0.000330128    	3.2308783e-05
0.000330533    	3.2256585e-05
0.000330938    	3.2204799e-05
0.000331343    	3.2153013e-05
0.000331748    	3.2101122e-05
0.000332153    	3.2049468e-05
0.000332558    	3.1997900e-05
0.000332963    	3.1945216e-05
0.000333368    	3.1892506e-05
0.000333773    	3.1839725e-05
0.000334178    	3.1786881e-05
0.000334583    	3.1734154e-05
0.000334988    	3.1680763e-05
0.000335393    	3.1627615e-05
0.000335798    	3.1573758e-05
0.000336203    	3.1520133e-05
0.000336608    	3.1465542e-05
0.000337013    	3.1410930e-05
0.000337418    	3.1356296e-05
0.000337823    	3.1301177e-05
0.000338228    	3.1245964e-05
0.000338633    	3.1190729e-05
0.000339038    	3.1134588e-05
0.000339443    	3.1077985e-05
0.000339848    	3.1021459e-05
0.000340253    	3.0965135e-05
0.000340658    	3.0907489e-05
0.000341063    	3.0849827e-05
0.000341468    	3.0791683e-05
0.000341873    	3.0732669e-05
0.000342278    	3.0673979e-05
0.000342683    	3.0614464e-05
0.000343088    	3.0554502e-05
0.000343493    	3.0494217e-05
0.000343898    	3.0432963e-05
0.000344303    	3.0371615e-05
0.000344708    	3.0309750e-05
0.000345113    	3.0247015e-05
0.000345518    	3.0183995e-05
0.000345923    	3.0120441e-05
0.000346328    	3.0055929e-05
0.000346733    	2.9990871e-05
0.000347138    	2.9925470e-05
0.000347543    	2.9859504e-05
0.000347948    	2.9792967e-05
0.000348353    	2.9725405e-05
0.000348758    	2.9656809e-05
0.000349163    	2.9588066e-05
0.000349568    	2.9518558e-05
0.000349973    	2.9448268e-05
0.000350378    	2.9377359e-05
0.000350783    	2.9306142e-05
0.000351188    	2.9233027e-05
0.000351593    	2.9160302e-05
0.000351998    	2.9085835e-05
0.000352403    	2.9010916e-05
0.000352808    	2.8935427e-05
0.000353213    	2.8858723e-05
0.000353618    	2.8781332e-05
0.000354023    	2.8703086e-05
0.000354428    	2.8624124e-05
0.000354833    	2.8544491e-05
0.000355238    	2.8464030e-05
0.000355643    	2.8382036e-05
0.000356048    	2.8300006e-05
0.000356453    	2.8216687e-05
0.000356858    	2.8132442e-05
0.000357263    	2.8048196e-05
0.000357668    	2.7962889e-05
0.000358073    	2.7875895e-05
0.000358478    	2.7788974e-05
0.000358883    	2.7701156e-05
0.000359288    	2.7612463e-05
0.000359693    	2.7522966e-05
0.000360098    	2.7432379e-05
0.000360503    	2.7341864e-05
0.000360908    	2.7250449e-05
0.000361313    	2.7158139e-05
0.000361718    	2.7065489e-05
0.000362123    	2.6971823e-05
0.000362528    	2.6877811e-05
0.000362933    	2.6783344e-05
0.000363338    	2.6688041e-05
0.000363743    	2.6592546e-05
0.000364148    	2.6496137e-05
0.000364553    	2.6399620e-05
0.000364958    	2.6302001e-05
0.000365363    	2.6204161e-05
0.000365768    	2.6105763e-05
0.000366173    	2.6006216e-05
0.000366578    	2.5906944e-05
0.000366983    	2.5806831e-05
0.000367388    	2.5706224e-05
0.000367793    	2.5605409e-05
0.000368198    	2.5503535e-05
0.000368603    	2.5401023e-05
0.000369008    	2.5298187e-05
0.000369413    	2.5195458e-05
0.000369818    	2.5090987e-05
0.000370223    	2.4986417e-05
0.000370628    	2.4880789e-05
0.000371033    	2.4775237e-05
0.000371438    	2.4669217e-05
0.000371843    	2.4562459e-05
0.000372248    	2.4455424e-05
0.000372653    	2.4348060e-05
0.000373058    	2.4239622e-05
0.000373463    	2.4130307e-05
0.000373868    	2.4021306e-05
0.000374273    	2.3911374e-05
0.000374678    	2.3801054e-05
0.000375083    	2.3689640e-05
0.000375488    	2.3578562e-05
0.000375893    	2.3466323e-05
0.000376298    	2.3353700e-05
0.000376703    	2.3241302e-05
0.000377108    	2.3127624e-05
0.000377513    	2.3013314e-05
0.000377918    	2.2898890e-05
0.000378323    	2.2784113e-05
0.000378728    	2.2668947e-05
0.000379133    	2.2552975e-05
0.000379538    	2.2436082e-05
0.000379943    	2.2319730e-05
0.000380348    	2.2202654e-05
0.000380753    	2.2085151e-05
0.000381158    	2.1968170e-05
0.000381563    	2.1850080e-05
0.000381968    	2.1730464e-05
0.000382373    	2.1611455e-05
0.000382778    	2.1491875e-05
0.000383183    	2.1372430e-05
0.000383588    	2.1252048e-05
0.000383993    	2.1131414e-05
0.000384398    	2.1010252e-05
0.000384803    	2.0888629e-05
0.000385208    	2.0766153e-05
0.000385613    	2.0644025e-05
0.000386018    	2.0521731e-05
0.000386423    	2.0398481e-05
0.000386828    	2.0275113e-05
0.000387233    	2.0150409e-05
0.000387638    	2.0025735e-05
0.000388043    	1.9902165e-05
0.000388448    	1.9776372e-05
0.000388853    	1.9651113e-05
0.000389258    	1.9525099e-05
0.000389663    	1.9398132e-05
0.000390068    	1.9271474e-05
0.000390473    	1.9143892e-05
0.000390878    	1.9016013e-05
0.000391283    	1.8887826e-05
0.000391688    	1.8758655e-05
0.000392093    	1.8628794e-05
0.000392498    	1.8499184e-05
0.000392903    	1.8368944e-05
0.000393308    	1.8237793e-05
0.000393713    	1.8106684e-05
0.000394118    	1.7974957e-05
0.000394523    	1.7841351e-05
0.000394928    	1.7707767e-05
0.000395333    	1.7574844e-05
0.000395738    	1.7440386e-05
0.000396143    	1.7305798e-05
0.000396548    	1.7170299e-05
0.000396953    	1.7033854e-05
0.000397358    	1.6897611e-05
0.000397763    	1.6760638e-05
0.000398168    	1.6622243e-05
0.000398573    	1.6483570e-05
0.000398978    	1.6343714e-05
0.000399383    	1.6203797e-05
0.000399788    	1.6063413e-05
0.000400193    	1.5921576e-05
0.000400598    	1.5779679e-05
0.000401003    	1.5635502e-05
0.000401408    	1.5491600e-05
0.000401813    	1.5346815e-05
0.000402218    	1.5200819e-05
0.000402623    	1.5054318e-05
0.000403028    	1.4906488e-05