# Region type : patch cOutlet
# Faces  :     1484
# Area   :     4.0504348e-05
# Time         	average(U)	average(p)	average(T)
0              	(0.0000000e+00 0.0000000e+00 0.0000000e+00)	1.0000000e+05	2.9300000e+02
4.83925e-07    	(3.6613755e-08 -6.3143124e-04 3.1196375e-07)	1.0000094e+05	2.9400001e+02
8.8826e-07     	(-5.7970086e-08 -4.8771839e-04 2.5634503e-09)	1.0000038e+05	2.9399451e+02
1.29259e-06    	(1.8343317e-04 -4.0191117e-03 1.3513429e-04)	9.9998335e+04	2.9398015e+02
1.69693e-06    	(1.2165727e-03 -7.1041273e-03 9.5419572e-04)	9.9973196e+04	2.9383351e+02
2.10126e-06    	(8.7804086e-04 -3.6519032e-02 5.3589785e-04)	9.9948651e+04	2.9378375e+02
2.5056e-06     	(-3.1003694e-04 -7.5286876e-02 1.6441467e-04)	9.9952107e+04	2.9382915e+02
2.90993e-06    	(-4.0025521e-04 -8.6146486e-02 -1.8805641e-04)	9.9958694e+04	2.9384162e+02
3.31427e-06    	(-1.7373910e-03 -7.8349265e-02 -5.8904752e-04)	9.9951868e+04	2.9380290e+02
3.7186e-06     	(-1.8004471e-03 -7.4010851e-02 -1.9294368e-04)	9.9958375e+04	2.9383633e+02
4.12294e-06    	(-1.2487920e-03 -6.8807877e-02 -2.5164531e-04)	9.9966414e+04	2.9385700e+02
4.52728e-06    	(-8.3989286e-04 -6.1717701e-02 -2.3480184e-04)	9.9969477e+04	2.9386363e+02
4.9316e-06     	(-2.2844381e-04 -5.6709292e-02 -2.4357291e-05)	9.9964882e+04	2.9385031e+02
5.33592e-06    	(8.2957705e-05 -4.9930086e-02 -7.5562934e-04)	9.9958695e+04	2.9384203e+02
5.74025e-06    	(-1.1822216e-03 -4.3887696e-02 -5.5448523e-04)	9.9953863e+04	2.9383760e+02
6.1446e-06     	(-1.0312961e-03 -3.9252245e-02 1.3878705e-04)	9.9949690e+04	2.9383303e+02
6.54898e-06    	(-3.1658246e-04 -3.2817255e-02 -5.4075799e-04)	9.9946379e+04	2.9383362e+02
6.95339e-06    	(-6.8086294e-04 -2.7602894e-02 -1.8701843e-04)	9.9940243e+04	2.9380801e+02
7.35798e-06    	(-2.5091921e-03 -2.7701573e-02 1.1962504e-04)	9.9937445e+04	2.9381110e+02
7.76253e-06    	(-8.7280392e-04 -2.6172595e-02 1.1132051e-03)	9.9938092e+04	2.9381449e+02
8.16708e-06    	(1.6005980e-04 -2.6415833e-02 -7.9388695e-04)	9.9938985e+04	2.9381314e+02
8.57163e-06    	(-1.3671645e-05 -2.5963789e-02 -5.9445361e-04)	9.9941191e+04	2.9382363e+02
8.97618e-06    	(1.0269125e-03 -2.6355358e-02 8.8693981e-04)	9.9943412e+04	2.9382295e+02
9.38073e-06    	(6.6282875e-04 -2.5630644e-02 8.1073959e-04)	9.9944091e+04	2.9382636e+02
9.78526e-06    	(-2.5614894e-04 -2.4902206e-02 1.1062553e-03)	9.9945351e+04	2.9382728e+02
1.01898e-05    	(2.5362131e-04 -2.4857687e-02 1.1182595e-03)	9.9946265e+04	2.9382615e+02
1.05943e-05    	(-9.8981135e-04 -2.4850312e-02 -7.2486238e-04)	9.9946880e+04	2.9382473e+02
1.09989e-05    	(-2.1012775e-03 -2.4961833e-02 -6.8583545e-04)	9.9948171e+04	2.9382909e+02
1.14035e-05    	(-9.1258470e-05 -2.3884611e-02 -8.0527620e-06)	9.9949219e+04	2.9382879e+02
1.1808e-05     	(5.0963958e-04 -2.3643330e-02 2.5924322e-04)	9.9950182e+04	2.9383237e+02
1.22126e-05    	(6.8537110e-04 -2.2428645e-02 -1.1072755e-03)	9.9951165e+04	2.9383205e+02
1.26172e-05    	(7.6359873e-04 -2.1758976e-02 1.0621902e-03)	9.9952035e+04	2.9383269e+02
1.30218e-05    	(-2.8549744e-04 -2.1340572e-02 -7.2268622e-06)	9.9953097e+04	2.9383542e+02
1.34266e-05    	(-6.2407618e-05 -2.0019084e-02 2.1613831e-04)	9.9954150e+04	2.9383492e+02
1.38313e-05    	(-1.3448008e-03 -2.0413380e-02 1.6293142e-04)	9.9953777e+04	2.9383210e+02
1.42361e-05    	(-1.5151315e-03 -2.0092781e-02 -9.0814094e-04)	9.9953815e+04	2.9383096e+02
1.4641e-05     	(-1.4855970e-03 -2.0121220e-02 -1.5404250e-03)	9.9954858e+04	2.9383153e+02
1.50458e-05    	(-1.3752453e-03 -1.9870727e-02 -1.3058296e-03)	9.9955068e+04	2.9383170e+02
1.54506e-05    	(-4.9385424e-05 -1.9239018e-02 5.6852049e-04)	9.9955518e+04	2.9383004e+02
1.58553e-05    	(-3.0291674e-04 -1.8880803e-02 9.1190101e-04)	9.9954985e+04	2.9382812e+02
1.62601e-05    	(1.3544914e-03 -1.8065060e-02 4.3302901e-04)	9.9955852e+04	2.9382754e+02
1.66649e-05    	(4.1394627e-04 -1.7669254e-02 8.2529089e-04)	9.9955089e+04	2.9382462e+02
1.70696e-05    	(-1.1166904e-03 -1.7343704e-02 6.0322018e-05)	9.9954986e+04	2.9382459e+02
1.74743e-05    	(-1.3712127e-03 -1.7061572e-02 -2.5573627e-04)	9.9954208e+04	2.9382063e+02
1.78791e-05    	(-5.3060598e-04 -1.7167764e-02 8.9743411e-04)	9.9954045e+04	2.9382060e+02
1.82838e-05    	(1.2083784e-03 -1.6573450e-02 6.1752274e-04)	9.9954624e+04	2.9382029e+02
1.86885e-05    	(1.0602597e-03 -1.6311818e-02 7.5728527e-04)	9.9953366e+04	2.9381517e+02
1.90933e-05    	(5.3643160e-04 -1.5657674e-02 6.1244307e-04)	9.9954595e+04	2.9381936e+02
1.9498e-05     	(8.4055004e-05 -1.4924328e-02 2.0687685e-04)	9.9953463e+04	2.9381268e+02
1.99027e-05    	(-1.6353829e-03 -1.4981505e-02 3.2856428e-04)	9.9953260e+04	2.9381334e+02
2.03075e-05    	(-1.5062438e-03 -1.4716564e-02 -3.2129473e-04)	9.9952348e+04	2.9380958e+02
2.07124e-05    	(4.8692652e-04 -1.4820014e-02 -4.2362740e-04)	9.9952272e+04	2.9380985e+02
2.11172e-05    	(1.6779571e-03 -1.4496314e-02 -7.2681822e-04)	9.9952555e+04	2.9380962e+02
2.1522e-05     	(9.7435730e-04 -1.4689654e-02 4.1179687e-04)	9.9951900e+04	2.9380417e+02
2.19269e-05    	(1.0992584e-04 -1.4705465e-02 2.5258162e-03)	9.9951178e+04	2.9380003e+02
2.23317e-05    	(-9.3742784e-04 -1.6324492e-02 8.8547751e-04)	9.9948688e+04	2.9379089e+02
2.27365e-05    	(-4.7530271e-04 -1.8835150e-02 3.0495603e-04)	9.9949166e+04	2.9379454e+02
2.31414e-05    	(1.5749288e-04 -2.0637476e-02 -9.9889124e-04)	9.9949511e+04	2.9379336e+02
2.35462e-05    	(-4.6228401e-04 -2.1603366e-02 -9.9785109e-04)	9.9950839e+04	2.9379654e+02
2.3951e-05     	(-1.1057164e-04 -2.0879552e-02 -3.7914990e-04)	9.9951980e+04	2.9379819e+02
2.43559e-05    	(-2.6074138e-04 -2.0796595e-02 6.6193067e-04)	9.9953266e+04	2.9379916e+02
2.47607e-05    	(-8.0525362e-05 -2.1487501e-02 8.7165886e-04)	9.9954249e+04	2.9380077e+02
2.51655e-05    	(2.0614685e-04 -2.1462109e-02 7.4141893e-04)	9.9955405e+04	2.9379945e+02
2.55703e-05    	(-7.1204969e-04 -2.2699062e-02 -7.9956843e-05)	9.9957009e+04	2.9380528e+02
2.59751e-05    	(-1.3101904e-03 -2.2729084e-02 -8.1332449e-04)	9.9958563e+04	2.9380397e+02
2.63799e-05    	(-9.2651475e-04 -2.3509908e-02 -5.2969485e-04)	9.9959675e+04	2.9380577e+02
2.67847e-05    	(-1.3854575e-04 -2.4098469e-02 -3.0227525e-04)	9.9961223e+04	2.9381026e+02
2.71895e-05    	(2.7987774e-04 -2.4195542e-02 3.1593531e-04)	9.9962592e+04	2.9380927e+02
2.75943e-05    	(2.5244698e-04 -2.5472240e-02 9.4660076e-04)	9.9963753e+04	2.9381177e+02
2.79992e-05    	(1.9196109e-05 -2.4919551e-02 5.6826471e-04)	9.9964767e+04	2.9381166e+02
2.84041e-05    	(-2.3416889e-04 -2.5689055e-02 5.6844747e-04)	9.9965478e+04	2.9381157e+02
2.8809e-05     	(-1.1501183e-03 -2.6175753e-02 -5.8444107e-05)	9.9966429e+04	2.9381254e+02
2.92139e-05    	(-5.5525328e-04 -2.7057965e-02 -1.1994979e-03)	9.9966790e+04	2.9381287e+02
2.96187e-05    	(-1.0011673e-04 -2.6721910e-02 -1.3673256e-03)	9.9967875e+04	2.9381372e+02
3.00236e-05    	(6.0749098e-04 -2.6420639e-02 -8.9914949e-04)	9.9968800e+04	2.9381431e+02
3.04285e-05    	(1.3667769e-03 -2.6650734e-02 -4.1339797e-04)	9.9968975e+04	2.9381511e+02
3.08334e-05    	(-3.1805155e-04 -2.5853852e-02 -3.7333997e-04)	9.9969541e+04	2.9381498e+02
3.12383e-05    	(-1.8155298e-04 -2.5768211e-02 1.3384474e-03)	9.9968793e+04	2.9381104e+02
3.16432e-05    	(-2.3891100e-04 -2.5705306e-02 6.5594938e-04)	9.9968833e+04	2.9380999e+02
3.20481e-05    	(-4.5058545e-04 -2.5909844e-02 -2.6096495e-04)	9.9968889e+04	2.9380959e+02
3.2453e-05     	(4.9106022e-04 -2.5669210e-02 -1.2892740e-03)	9.9969266e+04	2.9381021e+02
3.2858e-05     	(5.0192959e-04 -2.5297043e-02 -1.6383035e-03)	9.9969982e+04	2.9381211e+02
3.32629e-05    	(4.1937743e-04 -2.4677253e-02 -4.4096379e-04)	9.9969425e+04	2.9380589e+02
3.36678e-05    	(-7.5823285e-04 -2.4616572e-02 -2.2030762e-04)	9.9969312e+04	2.9380729e+02
3.40728e-05    	(-1.3456791e-04 -2.4332005e-02 4.4213322e-04)	9.9969142e+04	2.9380612e+02
3.44777e-05    	(-8.5552536e-04 -2.4547300e-02 7.1777833e-04)	9.9968589e+04	2.9380401e+02
3.48827e-05    	(-5.0116844e-04 -2.3949701e-02 -4.6638948e-04)	9.9968792e+04	2.9380255e+02
3.52876e-05    	(4.3012908e-04 -2.4622617e-02 -1.1583608e-03)	9.9968397e+04	2.9380044e+02
3.56926e-05    	(4.9904200e-06 -2.4087019e-02 -8.4334042e-04)	9.9968544e+04	2.9380202e+02
3.60976e-05    	(2.6632534e-04 -2.3556921e-02 -2.4801499e-04)	9.9968956e+04	2.9380192e+02
3.65026e-05    	(7.0287068e-04 -2.3094641e-02 -1.4932022e-03)	9.9969180e+04	2.9380345e+02
3.69075e-05    	(-6.4962213e-05 -2.2145966e-02 -8.4972333e-04)	9.9967792e+04	2.9379547e+02
3.73125e-05    	(-7.0143380e-04 -2.2460744e-02 -6.5421467e-04)	9.9967714e+04	2.9379660e+02
3.77175e-05    	(-1.5203884e-03 -2.2379859e-02 -4.7502711e-05)	9.9967009e+04	2.9379348e+02
3.81225e-05    	(-1.6197764e-04 -2.2817644e-02 -3.2896032e-04)	9.9966383e+04	2.9379015e+02
3.85274e-05    	(6.3182785e-04 -2.2389033e-02 -1.3889711e-03)	9.9967195e+04	2.9379303e+02
3.89324e-05    	(4.0377668e-04 -2.2059343e-02 -7.9958593e-04)	9.9966906e+04	2.9379244e+02
3.93374e-05    	(6.1889691e-04 -2.1431680e-02 -5.1604836e-04)	9.9966965e+04	2.9379049e+02
3.97423e-05    	(-1.5291109e-05 -2.0937329e-02 -5.0893632e-04)	9.9965317e+04	2.9378446e+02
4.01473e-05    	(2.1658362e-04 -2.1482059e-02 -4.7004986e-04)	9.9964709e+04	2.9378363e+02
4.05523e-05    	(-1.1580529e-03 -2.1446526e-02 5.8318193e-04)	9.9964315e+04	2.9378130e+02
4.09572e-05    	(-6.7015718e-04 -2.1593283e-02 6.4549403e-04)	9.9964201e+04	2.9378111e+02
4.13622e-05    	(-7.0638727e-04 -2.0757695e-02 -5.1348846e-04)	9.9964184e+04	2.9378027e+02
4.17672e-05    	(3.8598363e-06 -2.0965170e-02 2.0576147e-06)	9.9963749e+04	2.9378044e+02
4.21722e-05    	(1.1702122e-03 -2.0144856e-02 -2.7799878e-04)	9.9963814e+04	2.9377973e+02
4.25771e-05    	(1.8150332e-04 -2.0371832e-02 5.4501476e-04)	9.9962879e+04	2.9377512e+02
4.29821e-05    	(-1.4868805e-03 -2.0586380e-02 2.0906674e-04)	9.9962763e+04	2.9377556e+02
4.33871e-05    	(-1.5422243e-03 -1.9957723e-02 3.5269813e-04)	9.9962608e+04	2.9377224e+02
4.37921e-05    	(2.2781729e-04 -2.0643496e-02 -9.7580972e-04)	9.9962323e+04	2.9377346e+02
4.41971e-05    	(5.5811326e-04 -2.0251637e-02 -7.6360579e-04)	9.9963091e+04	2.9377543e+02
4.4602e-05     	(6.2073385e-04 -1.9994070e-02 -4.6592428e-04)	9.9963196e+04	2.9377448e+02
4.5007e-05     	(-2.0717620e-04 -1.9770744e-02 -6.3296600e-05)	9.9963178e+04	2.9377293e+02
4.5412e-05     	(-4.9011488e-04 -2.0280266e-02 4.7624425e-04)	9.9962333e+04	2.9376925e+02
4.5817e-05     	(-3.6408489e-04 -2.0956279e-02 3.8089138e-05)	9.9962372e+04	2.9377146e+02
4.6222e-05     	(-3.0637202e-04 -2.1432161e-02 5.8510469e-04)	9.9962084e+04	2.9376701e+02
4.6627e-05     	(8.6124859e-04 -2.1550703e-02 -5.7433605e-04)	9.9962685e+04	2.9376928e+02
4.70319e-05    	(6.4078771e-04 -2.1485902e-02 -5.2256661e-04)	9.9963817e+04	2.9377051e+02
4.74369e-05    	(1.9007598e-04 -2.1308359e-02 -6.3716215e-04)	9.9964254e+04	2.9377302e+02
4.78419e-05    	(3.1715729e-04 -2.0710793e-02 -1.1460426e-05)	9.9964596e+04	2.9377234e+02
4.82469e-05    	(1.0902886e-03 -2.0501610e-02 6.1244224e-04)	9.9964212e+04	2.9376710e+02
4.86519e-05    	(-1.6361981e-04 -2.1480409e-02 1.1782737e-03)	9.9963438e+04	2.9376702e+02
4.90569e-05    	(-1.3549055e-03 -2.1947877e-02 5.8197862e-04)	9.9963766e+04	2.9376719e+02
4.94618e-05    	(-6.5695495e-04 -2.2348518e-02 -1.0891882e-03)	9.9964129e+04	2.9376752e+02
4.98668e-05    	(-3.3698196e-04 -2.2763279e-02 -1.1261417e-03)	9.9964787e+04	2.9376836e+02
5.02718e-05    	(9.4143137e-04 -2.2389564e-02 1.5406023e-04)	9.9965120e+04	2.9376866e+02
5.06768e-05    	(1.4718625e-03 -2.2448712e-02 6.5695309e-04)	9.9965500e+04	2.9376772e+02
5.10818e-05    	(1.6525536e-03 -2.2371779e-02 5.2686548e-04)	9.9964675e+04	2.9376207e+02
5.14868e-05    	(-1.9567707e-04 -2.3099209e-02 7.8301274e-04)	9.9965075e+04	2.9376540e+02
5.18918e-05    	(-1.5360659e-03 -2.2797335e-02 1.3163785e-03)	9.9965311e+04	2.9376511e+02
5.22967e-05    	(-1.2265547e-03 -2.2630168e-02 2.1282599e-04)	9.9965390e+04	2.9376158e+02
5.27017e-05    	(8.6233983e-04 -2.3100137e-02 -4.0664692e-04)	9.9965598e+04	2.9376467e+02
5.31067e-05    	(1.6184098e-03 -2.2788821e-02 5.8486613e-04)	9.9966038e+04	2.9376533e+02
5.35117e-05    	(6.3697122e-04 -2.2492843e-02 2.6027866e-04)	9.9966420e+04	2.9376350e+02
5.39167e-05    	(6.6087285e-04 -2.2952860e-02 8.4646112e-04)	9.9965727e+04	2.9376020e+02
5.43217e-05    	(-8.8167435e-04 -2.3355459e-02 1.2258245e-03)	9.9965726e+04	2.9376029e+02
5.47266e-05    	(-8.1933476e-04 -2.3604693e-02 5.6671168e-04)	9.9966171e+04	2.9376144e+02
5.51316e-05    	(6.2369751e-04 -2.3573795e-02 -7.8126787e-04)	9.9965958e+04	2.9375986e+02
5.55366e-05    	(5.3202723e-04 -2.3969409e-02 -2.1641633e-03)	9.9966734e+04	2.9376322e+02
5.59416e-05    	(3.3364396e-04 -2.3683363e-02 -9.3701406e-04)	9.9967510e+04	2.9376439e+02
5.63466e-05    	(1.8931406e-04 -2.3216467e-02 -2.8285407e-04)	9.9967660e+04	2.9376199e+02
5.67516e-05    	(1.9486335e-03 -2.3947254e-02 1.0032875e-03)	9.9966983e+04	2.9375867e+02
5.71566e-05    	(7.8167471e-04 -2.4543038e-02 6.3143916e-04)	9.9966640e+04	2.9375789e+02
5.75615e-05    	(-1.5998815e-04 -2.5371134e-02 1.7204718e-04)	9.9967605e+04	2.9376053e+02
5.79665e-05    	(1.3649500e-04 -2.6103636e-02 -7.1855322e-05)	9.9967799e+04	2.9375987e+02
5.83715e-05    	(6.7173104e-04 -2.6157863e-02 -6.7854695e-04)	9.9968911e+04	2.9376152e+02
5.87765e-05    	(1.7586143e-03 -2.6349787e-02 -1.2408662e-04)	9.9970012e+04	2.9376363e+02
5.91815e-05    	(1.9120296e-03 -2.5964450e-02 -5.5849063e-04)	9.9970162e+04	2.9376188e+02
5.95865e-05    	(2.7719617e-03 -2.6438427e-02 -3.5910729e-04)	9.9970501e+04	2.9376233e+02
5.99914e-05    	(1.4823905e-03 -2.7096822e-02 2.7165792e-04)	9.9969805e+04	2.9375977e+02
6.03964e-05    	(-5.7354467e-04 -2.7907966e-02 2.8705074e-04)	9.9970637e+04	2.9376102e+02
6.08014e-05    	(-7.4218750e-05 -2.8320683e-02 -7.5296805e-04)	9.9971199e+04	2.9376163e+02
6.12064e-05    	(1.2555117e-03 -2.8456331e-02 -1.1361760e-03)	9.9972153e+04	2.9376313e+02
6.16114e-05    	(2.0920167e-03 -2.8857000e-02 -9.0474144e-04)	9.9973292e+04	2.9376604e+02
6.20164e-05    	(1.8383709e-03 -2.8273159e-02 -1.2497448e-03)	9.9973342e+04	2.9376347e+02
6.24214e-05    	(1.4244743e-03 -2.8658625e-02 -3.1899546e-04)	9.9973709e+04	2.9376552e+02
6.28263e-05    	(-1.1459058e-04 -2.8792838e-02 3.9464914e-04)	9.9973214e+04	2.9376014e+02
6.32313e-05    	(-3.1945773e-04 -2.9528879e-02 8.1478988e-04)	9.9973613e+04	2.9376107e+02
6.36363e-05    	(-1.4228637e-04 -3.0430291e-02 -9.3550874e-04)	9.9974089e+04	2.9376344e+02
6.40413e-05    	(8.4040788e-04 -3.0174676e-02 -1.0969111e-03)	9.9974644e+04	2.9376239e+02
6.44463e-05    	(1.2346591e-03 -3.0428928e-02 -1.7330642e-03)	9.9975838e+04	2.9376611e+02
6.48513e-05    	(2.3473483e-04 -3.0131785e-02 -7.8975072e-04)	9.9976167e+04	2.9376541e+02
6.52563e-05    	(-1.1880399e-03 -2.9951245e-02 -4.0258602e-04)	9.9976195e+04	2.9376261e+02
6.56613e-05    	(-1.1105092e-03 -3.0875870e-02 1.6347118e-03)	9.9975392e+04	2.9376054e+02
6.60663e-05    	(-6.0921707e-04 -3.1460969e-02 5.7654790e-04)	9.9976123e+04	2.9376278e+02
6.64713e-05    	(-4.5504471e-04 -3.1957607e-02 -8.0775095e-05)	9.9976589e+04	2.9376260e+02
6.68763e-05    	(-3.6709240e-04 -3.1859692e-02 -9.0631835e-04)	9.9977784e+04	2.9376585e+02
6.72813e-05    	(-9.6913517e-04 -3.1675751e-02 -9.4815483e-04)	9.9978229e+04	2.9376561e+02
6.76863e-05    	(-1.1156593e-03 -3.1843190e-02 -5.1958382e-04)	9.9978480e+04	2.9376453e+02
6.80913e-05    	(-5.5127644e-04 -3.2352892e-02 -1.0347604e-03)	9.9978426e+04	2.9376328e+02
6.84963e-05    	(-1.1929839e-03 -3.2926534e-02 9.1317061e-04)	9.9978372e+04	2.9376378e+02
6.89013e-05    	(-1.3150675e-03 -3.3150096e-02 8.1051379e-04)	9.9979874e+04	2.9376687e+02
6.93063e-05    	(-1.2686688e-03 -3.3635387e-02 4.0224281e-04)	9.9980118e+04	2.9376655e+02
6.97113e-05    	(-1.8752796e-03 -3.3824581e-02 -5.7247247e-04)	9.9980663e+04	2.9376606e+02
7.01163e-05    	(-6.3375213e-04 -3.4083915e-02 -1.5893275e-03)	9.9980880e+04	2.9376622e+02
7.05214e-05    	(-1.6233289e-03 -3.4241675e-02 -5.1181517e-04)	9.9981548e+04	2.9376806e+02
7.09264e-05    	(-6.9863945e-04 -3.4176712e-02 -7.0590403e-04)	9.9981902e+04	2.9376578e+02
7.13314e-05    	(-9.6289631e-04 -3.5244492e-02 7.2170516e-04)	9.9982118e+04	2.9376687e+02
7.17364e-05    	(-1.0373322e-03 -3.5077325e-02 1.1230270e-03)	9.9982882e+04	2.9376760e+02
7.21414e-05    	(2.9203922e-04 -3.5788655e-02 1.1836341e-03)	9.9982826e+04	2.9376696e+02
7.25464e-05    	(-4.5849635e-04 -3.6509517e-02 6.6117173e-04)	9.9982986e+04	2.9376635e+02
7.29514e-05    	(-5.4045648e-04 -3.6940272e-02 -1.8138249e-04)	9.9983326e+04	2.9376554e+02
7.33564e-05    	(-9.8802560e-04 -3.6866545e-02 9.4692021e-05)	9.9983972e+04	2.9376546e+02
7.37615e-05    	(-1.2188903e-03 -3.7149605e-02 -6.0173508e-05)	9.9984069e+04	2.9376594e+02
7.41665e-05    	(-1.5240209e-03 -3.7648017e-02 2.5444285e-03)	9.9984606e+04	2.9376717e+02
7.45715e-05    	(-1.1632592e-03 -3.7973166e-02 1.8663967e-03)	9.9984653e+04	2.9376552e+02
7.49765e-05    	(-7.9788069e-04 -3.8435223e-02 1.9466607e-03)	9.9985497e+04	2.9376843e+02
7.53815e-05    	(-1.0262417e-03 -3.7775633e-02 1.9264572e-03)	9.9986276e+04	2.9377012e+02
7.57865e-05    	(-1.9844718e-03 -3.7897613e-02 1.4259902e-03)	9.9986113e+04	2.9376567e+02
7.61916e-05    	(-1.2129831e-03 -3.8205389e-02 8.9150356e-04)	9.9985971e+04	2.9376602e+02
7.65966e-05    	(-9.3874613e-04 -3.8558371e-02 5.3270172e-04)	9.9986220e+04	2.9376493e+02
7.70016e-05    	(-1.4426492e-03 -3.9312080e-02 2.7344893e-03)	9.9985293e+04	2.9375985e+02
7.74066e-05    	(-1.9190011e-03 -4.0194704e-02 2.3977654e-03)	9.9986722e+04	2.9376504e+02
7.78116e-05    	(-1.9902800e-03 -4.0311244e-02 2.2759815e-03)	9.9987176e+04	2.9376497e+02
7.82167e-05    	(-1.7798022e-03 -4.0326555e-02 2.3684770e-03)	9.9987961e+04	2.9376773e+02
7.86217e-05    	(-1.2028483e-03 -3.9703363e-02 2.0217404e-03)	9.9987797e+04	2.9376577e+02
7.90267e-05    	(-1.7576095e-03 -3.9388207e-02 2.5443285e-03)	9.9987497e+04	2.9376437e+02
7.94317e-05    	(-1.7546701e-03 -3.9814337e-02 1.8662726e-03)	9.9987287e+04	2.9376331e+02
7.98367e-05    	(-1.2170710e-03 -4.0108239e-02 2.0212224e-03)	9.9987457e+04	2.9376282e+02
8.02418e-05    	(-1.5995798e-03 -3.9972463e-02 8.3855889e-04)	9.9987986e+04	2.9376408e+02
8.06468e-05    	(-6.1031173e-04 -4.0333192e-02 2.6123761e-03)	9.9988221e+04	2.9376337e+02
8.10518e-05    	(-1.5275180e-03 -4.0601674e-02 3.7102003e-03)	9.9988083e+04	2.9376228e+02
8.14568e-05    	(-1.9846499e-03 -4.0423429e-02 2.6329003e-03)	9.9988090e+04	2.9376271e+02
8.18618e-05    	(-1.8346438e-03 -4.0209657e-02 2.5367471e-03)	9.9988014e+04	2.9376227e+02
8.22669e-05    	(-1.4242315e-03 -4.0305975e-02 1.8004565e-03)	9.9987688e+04	2.9375912e+02
8.26719e-05    	(-1.1834503e-03 -4.0531071e-02 2.3027533e-03)	9.9987611e+04	2.9375912e+02
8.30769e-05    	(-7.0158310e-04 -4.0237062e-02 2.4058959e-03)	9.9987821e+04	2.9375853e+02
8.34819e-05    	(9.9533460e-04 -4.0770545e-02 2.8288284e-03)	9.9987954e+04	2.9376137e+02
8.38869e-05    	(8.3437636e-04 -4.0321580e-02 2.1416652e-03)	9.9988175e+04	2.9375900e+02
8.42919e-05    	(-3.7354990e-05 -4.0194015e-02 1.8858036e-03)	9.9988634e+04	2.9376228e+02
8.46969e-05    	(2.3259283e-04 -3.9893174e-02 2.1692651e-03)	9.9988260e+04	2.9376127e+02
8.51019e-05    	(1.4957139e-04 -3.9844717e-02 2.7171783e-03)	9.9987914e+04	2.9375737e+02
8.55069e-05    	(-3.8507815e-04 -4.0954776e-02 1.7092373e-03)	9.9987475e+04	2.9375492e+02
8.59119e-05    	(4.6535578e-04 -4.2025505e-02 1.4711583e-03)	9.9987501e+04	2.9375564e+02
8.63169e-05    	(1.4750638e-03 -4.2955500e-02 1.9647035e-03)	9.9988679e+04	2.9375845e+02
8.67219e-05    	(1.3744941e-03 -4.3462317e-02 1.7328991e-03)	9.9989465e+04	2.9375925e+02
8.71269e-05    	(1.4624766e-03 -4.3400330e-02 1.5932589e-03)	9.9989958e+04	2.9376043e+02
8.75319e-05    	(1.8552924e-03 -4.4225167e-02 1.3671577e-03)	9.9990338e+04	2.9376207e+02
8.79369e-05    	(1.4695306e-03 -4.4308022e-02 4.0600292e-04)	9.9990534e+04	2.9375886e+02
8.83419e-05    	(9.1081075e-04 -4.5245104e-02 1.0406086e-05)	9.9991512e+04	2.9376181e+02
8.87469e-05    	(1.0749131e-03 -4.6054542e-02 1.8289121e-04)	9.9992077e+04	2.9376221e+02
8.91519e-05    	(1.5027682e-03 -4.7043975e-02 1.1893830e-03)	9.9993312e+04	2.9376613e+02
8.95569e-05    	(1.1325001e-03 -4.7865505e-02 1.0670977e-03)	9.9993715e+04	2.9376412e+02
8.99619e-05    	(1.5394793e-03 -4.8807871e-02 1.0977624e-03)	9.9995147e+04	2.9376633e+02
9.03669e-05    	(1.4345512e-03 -4.9993919e-02 4.8657604e-04)	9.9996072e+04	2.9376891e+02
9.07719e-05    	(2.0230062e-03 -5.0290029e-02 -7.9323619e-04)	9.9997135e+04	2.9376938e+02
9.11769e-05    	(1.2681008e-03 -5.1561947e-02 -1.2130927e-03)	9.9997780e+04	2.9377017e+02
9.15819e-05    	(1.0361596e-03 -5.2194124e-02 -9.7779511e-04)	9.9998744e+04	2.9377094e+02
9.19869e-05    	(1.9528390e-03 -5.3150425e-02 -1.4277823e-03)	9.9999948e+04	2.9377443e+02
9.23919e-05    	(1.0500184e-03 -5.3952854e-02 -2.0304227e-03)	1.0000073e+05	2.9377365e+02
9.27969e-05    	(1.1592364e-03 -5.4689937e-02 -1.1298290e-03)	1.0000166e+05	2.9377592e+02
9.32019e-05    	(1.0656954e-03 -5.5366894e-02 -9.0573591e-04)	1.0000257e+05	2.9377751e+02
9.36069e-05    	(1.6665911e-03 -5.5894716e-02 -1.6198109e-03)	1.0000309e+05	2.9377690e+02
9.40119e-05    	(1.3331656e-03 -5.6254534e-02 -9.7331781e-04)	1.0000417e+05	2.9377765e+02
9.44169e-05    	(6.2625361e-04 -5.6653760e-02 -7.9026839e-04)	1.0000438e+05	2.9377633e+02
9.4822e-05     	(1.3876984e-03 -5.6999855e-02 -1.1657196e-03)	1.0000469e+05	2.9377801e+02
9.5227e-05     	(3.8572491e-04 -5.7517558e-02 -9.6333811e-04)	1.0000479e+05	2.9377669e+02
9.5632e-05     	(1.6887651e-04 -5.7828882e-02 -5.7071466e-05)	1.0000523e+05	2.9377817e+02
9.6037e-05     	(5.9775818e-04 -5.7627185e-02 -3.6664342e-04)	1.0000538e+05	2.9377551e+02
9.6442e-05     	(1.2591463e-03 -5.7872309e-02 -1.3331155e-03)	1.0000505e+05	2.9377460e+02
9.68471e-05    	(7.9722398e-04 -5.8051861e-02 -1.0272378e-03)	1.0000497e+05	2.9377444e+02
9.72521e-05    	(-5.3286932e-04 -5.8193817e-02 -9.9878579e-04)	1.0000485e+05	2.9377262e+02
9.76571e-05    	(4.1085486e-04 -5.8111635e-02 -8.8937702e-04)	1.0000509e+05	2.9377433e+02
9.80621e-05    	(1.8346723e-04 -5.7171833e-02 -4.1473673e-04)	1.0000512e+05	2.9377293e+02
9.84671e-05    	(-6.1681475e-04 -5.6834097e-02 -6.8716471e-04)	1.0000420e+05	2.9376790e+02
9.88722e-05    	(-5.2064278e-05 -5.7483566e-02 5.7403746e-04)	1.0000265e+05	2.9376516e+02
9.92772e-05    	(-7.3015772e-04 -5.7481803e-02 3.8947265e-04)	1.0000242e+05	2.9376495e+02
9.96822e-05    	(-6.7656423e-04 -5.7644679e-02 7.4605550e-04)	1.0000214e+05	2.9376490e+02
0.000100087    	(-2.4235049e-04 -5.6936670e-02 3.5170391e-04)	1.0000173e+05	2.9376334e+02
0.000100492    	(1.3327664e-03 -5.6297446e-02 -4.0463745e-04)	1.0000149e+05	2.9376227e+02
0.000100897    	(-3.4870586e-04 -5.5981576e-02 4.8886841e-04)	1.0000051e+05	2.9375850e+02
0.000101302    	(-1.1670617e-03 -5.5288152e-02 7.8436748e-04)	9.9999217e+04	2.9375534e+02
0.000101707    	(-6.9610365e-05 -5.5575961e-02 6.4532179e-04)	9.9998955e+04	2.9375602e+02
0.000102112    	(-1.5857939e-03 -5.5032687e-02 5.8636583e-04)	9.9998091e+04	2.9375250e+02
0.000102517    	(-8.1963045e-04 -5.5185520e-02 1.4715539e-04)	9.9997450e+04	2.9375286e+02
0.000102922    	(3.5905176e-04 -5.4736821e-02 2.1866089e-03)	9.9996927e+04	2.9375187e+02
0.000103327    	(5.0761799e-04 -5.4422994e-02 1.4662662e-03)	9.9996087e+04	2.9374966e+02
0.000103732    	(-1.6808461e-05 -5.4257760e-02 1.1420814e-03)	9.9996002e+04	2.9374952e+02
0.000104137    	(-1.5142504e-03 -5.3961157e-02 6.9101359e-04)	9.9994399e+04	2.9374589e+02
0.000104542    	(-2.2395604e-03 -5.3871346e-02 1.3698178e-03)	9.9994135e+04	2.9374419e+02
0.000104947    	(-1.3572842e-03 -5.4779455e-02 2.5119016e-03)	9.9993378e+04	2.9374274e+02
0.000105352    	(-5.5093112e-04 -5.4288745e-02 2.1016775e-03)	9.9992983e+04	2.9374250e+02
0.000105757    	(2.1910095e-04 -5.4607860e-02 2.2502893e-03)	9.9993261e+04	2.9374478e+02
0.000106163    	(9.1260447e-05 -5.4560786e-02 2.0066519e-03)	9.9992854e+04	2.9374359e+02
0.000106568    	(-7.2457846e-04 -5.4429109e-02 1.2601134e-03)	9.9992967e+04	2.9374518e+02
0.000106973    	(-3.9596037e-04 -5.4611628e-02 6.7429184e-04)	9.9991880e+04	2.9373799e+02
0.000107378    	(-4.4023863e-04 -5.5453224e-02 1.7045787e-03)	9.9992142e+04	2.9374032e+02
0.000107783    	(-2.9015949e-04 -5.6357241e-02 2.0238792e-03)	9.9992324e+04	2.9374152e+02
0.000108188    	(-1.5586951e-04 -5.6397569e-02 1.5532736e-03)	9.9992163e+04	2.9374122e+02
0.000108593    	(-7.0087925e-04 -5.7184810e-02 1.6632806e-03)	9.9993139e+04	2.9374413e+02
0.000108998    	(-8.2460221e-04 -5.7743965e-02 2.7502211e-03)	9.9993387e+04	2.9374384e+02
0.000109403    	(-1.1885333e-04 -5.7542967e-02 2.5741109e-03)	9.9993717e+04	2.9374595e+02
0.000109808    	(3.3611660e-04 -5.8426981e-02 1.4447030e-03)	9.9993349e+04	2.9374183e+02
0.000110213    	(3.6088444e-06 -5.9394721e-02 1.7952059e-03)	9.9993752e+04	2.9374244e+02
0.000110618    	(-1.1938296e-03 -6.0769174e-02 2.3380467e-03)	9.9994321e+04	2.9374253e+02
0.000111023    	(-3.0753531e-04 -6.1315794e-02 1.9212476e-03)	9.9995145e+04	2.9374399e+02
0.000111428    	(7.3359431e-04 -6.2113585e-02 1.6618750e-03)	9.9996158e+04	2.9374637e+02
0.000111833    	(4.8841378e-04 -6.2743777e-02 1.2167421e-03)	9.9996626e+04	2.9374689e+02
0.000112238    	(4.2611096e-04 -6.2954006e-02 9.9904774e-04)	9.9997531e+04	2.9374974e+02
0.000112643    	(9.1656291e-04 -6.3643541e-02 1.3726522e-03)	9.9997701e+04	2.9374889e+02
0.000113048    	(5.0660940e-04 -6.4150302e-02 9.5136798e-04)	9.9997922e+04	2.9374804e+02
0.000113453    	(1.5056669e-04 -6.5313701e-02 3.9103591e-05)	9.9998735e+04	2.9375135e+02
0.000113858    	(2.8854695e-04 -6.5322173e-02 2.5704529e-04)	9.9999081e+04	2.9375072e+02
0.000114263    	(7.0315541e-04 -6.5783632e-02 4.4303427e-04)	1.0000004e+05	2.9375238e+02
0.000114668    	(5.7588499e-04 -6.6080166e-02 1.0449193e-03)	9.9999762e+04	2.9375018e+02
0.000115073    	(7.6693306e-04 -6.6097251e-02 -5.8072706e-04)	1.0000046e+05	2.9375201e+02
0.000115478    	(1.5201448e-03 -6.6644165e-02 3.6988076e-04)	1.0000040e+05	2.9374965e+02
0.000115883    	(2.4157690e-04 -6.7195470e-02 9.3087695e-04)	1.0000010e+05	2.9374845e+02
0.000116288    	(-3.2400262e-04 -6.7567573e-02 -3.4456790e-04)	1.0000022e+05	2.9374807e+02
0.000116693    	(1.6447964e-05 -6.8006016e-02 -6.7098652e-05)	9.9999892e+04	2.9374607e+02
0.000117098    	(1.1966633e-03 -6.7918480e-02 -2.1855289e-04)	9.9999932e+04	2.9374591e+02
0.000117503    	(-1.4154325e-05 -6.8594898e-02 -4.4496964e-04)	9.9999969e+04	2.9374719e+02
0.000117908    	(7.3440604e-04 -6.7733943e-02 -1.0039770e-03)	9.9999135e+04	2.9374268e+02
0.000118313    	(1.7221525e-03 -6.8162825e-02 -2.1776406e-04)	9.9998562e+04	2.9374171e+02
0.000118718    	(1.4171175e-04 -6.8028711e-02 -9.7771399e-04)	9.9997819e+04	2.9374017e+02
0.000119123    	(-1.6223119e-03 -6.7788055e-02 -2.1736064e-03)	9.9997552e+04	2.9374100e+02
0.000119528    	(-1.5855526e-03 -6.7471608e-02 -1.4096507e-03)	9.9997492e+04	2.9373893e+02
0.000119933    	(-2.2286010e-04 -6.6718200e-02 -3.6080647e-04)	9.9996547e+04	2.9373577e+02
0.000120338    	(-3.7685199e-04 -6.6459949e-02 -2.1055829e-04)	9.9995784e+04	2.9373590e+02
0.000120743    	(-3.7334101e-04 -6.6106972e-02 -7.0943838e-04)	9.9994101e+04	2.9372839e+02
0.000121148    	(-6.0016060e-04 -6.5856381e-02 -8.3216440e-04)	9.9993619e+04	2.9373121e+02
0.000121553    	(-1.4971673e-03 -6.5642506e-02 -1.1809396e-03)	9.9992888e+04	2.9372643e+02
0.000121958    	(-1.3233252e-03 -6.5731066e-02 -1.8723122e-03)	9.9991332e+04	2.9372340e+02
0.000122363    	(-3.0370193e-04 -6.5660646e-02 -9.6340138e-04)	9.9991120e+04	2.9372555e+02
0.000122768    	(7.5239500e-05 -6.4600690e-02 -1.1606110e-03)	9.9990214e+04	2.9372211e+02
0.000123173    	(-7.3158234e-04 -6.4464003e-02 -4.7282358e-04)	9.9989207e+04	2.9371906e+02
0.000123578    	(-1.0776642e-03 -6.3696715e-02 -6.9635624e-05)	9.9988119e+04	2.9371783e+02
0.000123983    	(-2.0128793e-04 -6.2800769e-02 -8.0722201e-04)	9.9987074e+04	2.9371430e+02
0.000124388    	(-8.0078236e-04 -6.3467242e-02 -9.7828626e-04)	9.9985666e+04	2.9371182e+02
0.000124793    	(-1.7559322e-03 -6.2878836e-02 -2.0044644e-03)	9.9985080e+04	2.9371132e+02
0.000125198    	(-4.1641091e-04 -6.2642990e-02 -1.1021083e-03)	9.9983695e+04	2.9370779e+02
0.000125603    	(1.4229291e-03 -6.2582481e-02 2.9254384e-04)	9.9982991e+04	2.9370479e+02
0.000126008    	(5.5422193e-04 -6.2153262e-02 -3.6995205e-04)	9.9981828e+04	2.9370439e+02
0.000126413    	(-4.1317079e-04 -6.1771006e-02 -1.8098704e-03)	9.9981183e+04	2.9370223e+02
0.000126818    	(-1.8549332e-04 -6.1936105e-02 5.9137905e-04)	9.9979681e+04	2.9369781e+02
0.000127224    	(1.2793965e-04 -6.1824805e-02 1.7755075e-03)	9.9978655e+04	2.9369765e+02
0.000127629    	(-9.1811603e-04 -6.2280390e-02 -6.6227495e-04)	9.9978134e+04	2.9369635e+02
0.000128034    	(-9.3818506e-04 -6.1613852e-02 -3.7860164e-04)	9.9977765e+04	2.9369525e+02
0.000128439    	(1.2732401e-03 -6.1228022e-02 -4.6862045e-04)	9.9976769e+04	2.9369147e+02
0.000128844    	(1.1109690e-03 -6.1568505e-02 1.1196222e-04)	9.9975540e+04	2.9368906e+02
0.000129249    	(-4.7285138e-04 -6.1724310e-02 1.0890254e-04)	9.9975138e+04	2.9369105e+02
0.000129654    	(-7.4362320e-04 -6.1277619e-02 3.5311273e-04)	9.9975087e+04	2.9369072e+02
0.000130059    	(-9.8955412e-05 -6.1468007e-02 1.4565042e-03)	9.9974268e+04	2.9368907e+02
0.000130464    	(8.5814301e-04 -6.2034635e-02 1.3521474e-03)	9.9973502e+04	2.9368679e+02
0.000130869    	(3.6600811e-04 -6.1821766e-02 3.0163685e-04)	9.9973948e+04	2.9369006e+02
0.000131274    	(4.8370872e-05 -6.1478587e-02 5.5560496e-04)	9.9973909e+04	2.9369067e+02
0.000131679    	(2.9559279e-04 -6.1297558e-02 2.1322941e-03)	9.9972985e+04	2.9368366e+02
0.000132084    	(1.2361970e-03 -6.2472408e-02 2.4316838e-03)	9.9971910e+04	2.9368119e+02
0.000132489    	(1.5778424e-03 -6.3068499e-02 7.6073713e-04)	9.9972347e+04	2.9368619e+02
0.000132894    	(6.3685121e-04 -6.3092959e-02 5.8842644e-04)	9.9973191e+04	2.9368750e+02
0.000133299    	(1.5509143e-04 -6.3441672e-02 2.4609407e-03)	9.9972598e+04	2.9368462e+02
0.000133704    	(2.1829205e-03 -6.4100480e-02 3.7040033e-03)	9.9972408e+04	2.9368486e+02