# Region type : patch inlet
# Faces  :     7870
# Area   :     7.0477774e-05
# Time         	average(U)	average(p)	average(T)	average(rho)
0              	(0.0000000e+00 0.0000000e+00 0.0000000e+00)	2.0000000e+05	2.9400000e+02	2.3645360e+00
5.62517e-07    	(9.3036107e+01 1.7944769e-03 -8.0119879e+01)	1.7768430e+05	2.8420169e+02	2.1727315e+00
1.00486e-06    	(8.5191348e+01 -2.1045994e-03 -7.3387175e+01)	1.8112867e+05	2.8577082e+02	2.2027731e+00
1.44172e-06    	(8.1782451e+01 -1.6950444e-02 -7.0350959e+01)	1.8255552e+05	2.8641523e+02	2.2151765e+00
1.87835e-06    	(8.0524354e+01 -2.0638763e-02 -6.9272628e+01)	1.8306194e+05	2.8664275e+02	2.2195694e+00
2.31864e-06    	(8.0291923e+01 -1.5399336e-02 -6.9118928e+01)	1.8315349e+05	2.8668397e+02	2.2203642e+00
2.77704e-06    	(8.0238588e+01 -7.6741353e-03 -6.9125006e+01)	1.8317035e+05	2.8669178e+02	2.2205123e+00
3.26432e-06    	(8.0123993e+01 -6.1423470e-03 -6.9059970e+01)	1.8321119e+05	2.8671014e+02	2.2208667e+00
3.76282e-06    	(7.9943177e+01 -6.8895422e-03 -6.8902691e+01)	1.8328129e+05	2.8674138e+02	2.2214729e+00
4.26106e-06    	(7.9872323e+01 -6.0708224e-03 -6.8824761e+01)	1.8330794e+05	2.8675287e+02	2.2217003e+00
4.76173e-06    	(7.9975129e+01 -5.3235129e-03 -6.8906634e+01)	1.8326231e+05	2.8673179e+02	2.2213000e+00
5.26405e-06    	(8.0177099e+01 -7.1696859e-03 -6.9087408e+01)	1.8317427e+05	2.8669163e+02	2.2205315e+00
5.76286e-06    	(8.0378062e+01 -9.9920203e-03 -6.9273017e+01)	1.8308566e+05	2.8665123e+02	2.2197583e+00
6.26046e-06    	(8.0521789e+01 -1.2186949e-02 -6.9403862e+01)	1.8302202e+05	2.8662221e+02	2.2192029e+00
6.76084e-06    	(8.0648250e+01 -1.5161531e-02 -6.9517685e+01)	1.8296710e+05	2.8659729e+02	2.2187245e+00
7.26547e-06    	(8.0770883e+01 -1.7314731e-02 -6.9622904e+01)	1.8291565e+05	2.8657408e+02	2.2182774e+00
7.76906e-06    	(8.0930416e+01 -1.8121888e-02 -6.9755931e+01)	1.8285020e+05	2.8654465e+02	2.2177096e+00
8.26759e-06    	(8.1151462e+01 -1.7171891e-02 -6.9938705e+01)	1.8275957e+05	2.8650388e+02	2.2169229e+00
8.76244e-06    	(8.1461044e+01 -1.6648272e-02 -7.0197679e+01)	1.8263149e+05	2.8644620e+02	2.2158107e+00
9.25495e-06    	(8.1876073e+01 -1.5041052e-02 -7.0550911e+01)	1.8245708e+05	2.8636747e+02	2.2142948e+00
9.74585e-06    	(8.2382599e+01 -1.3053274e-02 -7.0982536e+01)	1.8224299e+05	2.8627071e+02	2.2124332e+00
1.02355e-05    	(8.2985920e+01 -1.1796902e-02 -7.1500865e+01)	1.8198512e+05	2.8615392e+02	2.2101889e+00
1.07232e-05    	(8.3671975e+01 -1.2440254e-02 -7.2092917e+01)	1.8168963e+05	2.8601991e+02	2.2076159e+00
1.12085e-05    	(8.4410615e+01 -1.2612625e-02 -7.2730650e+01)	1.8136911e+05	2.8587429e+02	2.2048228e+00
1.16911e-05    	(8.5205706e+01 -1.2924451e-02 -7.3419473e+01)	1.8102104e+05	2.8571586e+02	2.2017877e+00
1.21704e-05    	(8.6025496e+01 -1.4243460e-02 -7.4130467e+01)	1.8065953e+05	2.8555106e+02	2.1986332e+00
1.26454e-05    	(8.6858071e+01 -1.4366122e-02 -7.4852456e+01)	1.8028931e+05	2.8538193e+02	2.1954001e+00
1.31158e-05    	(8.7694098e+01 -1.4766675e-02 -7.5576793e+01)	1.7991526e+05	2.8521076e+02	2.1921314e+00
1.35844e-05    	(8.8544078e+01 -1.3995669e-02 -7.6314617e+01)	1.7953199e+05	2.8503507e+02	2.1887797e+00
1.4053e-05     	(8.9380869e+01 -1.2951574e-02 -7.7039886e+01)	1.7915261e+05	2.8486088e+02	2.1854600e+00
1.4523e-05     	(9.0227566e+01 -9.6027890e-03 -7.7774365e+01)	1.7876602e+05	2.8468304e+02	2.1820746e+00
1.49951e-05    	(9.1079399e+01 -9.1480885e-03 -7.8513755e+01)	1.7837512e+05	2.8450299e+02	2.1786497e+00
1.54694e-05    	(9.1928331e+01 -5.5233744e-03 -7.9250028e+01)	1.7798328e+05	2.8432219e+02	2.1752141e+00
1.59461e-05    	(9.2791199e+01 -3.6958238e-03 -7.9998523e+01)	1.7758323e+05	2.8413736e+02	2.1717048e+00
1.6426e-05     	(9.3656951e+01 -9.6989980e-05 -8.0748942e+01)	1.7717960e+05	2.8395052e+02	2.1681614e+00
1.69088e-05    	(9.4551614e+01 8.1029747e-04 -8.1527334e+01)	1.7675968e+05	2.8375587e+02	2.1644729e+00
1.73938e-05    	(9.5436512e+01 3.6950173e-03 -8.2295215e+01)	1.7634250e+05	2.8356215e+02	2.1608060e+00
1.78806e-05    	(9.6350052e+01 4.3538042e-03 -8.3090488e+01)	1.7590869e+05	2.8336035e+02	2.1569902e+00
1.83691e-05    	(9.7255334e+01 5.7617561e-03 -8.3876976e+01)	1.7547658e+05	2.8315901e+02	2.1531868e+00
1.8859e-05     	(9.8185147e+01 6.5191300e-03 -8.4688329e+01)	1.7502898e+05	2.8295002e+02	2.1492439e+00
1.93503e-05    	(9.9099388e+01 7.0171254e-03 -8.5483688e+01)	1.7458624e+05	2.8274289e+02	2.1453406e+00
1.98425e-05    	(1.0002224e+02 7.3154875e-03 -8.6287378e+01)	1.7413635e+05	2.8253201e+02	2.1413713e+00
2.03343e-05    	(1.0094054e+02 6.3147871e-03 -8.7087305e+01)	1.7368545e+05	2.8232024e+02	2.1373900e+00
2.08255e-05    	(1.0184115e+02 6.8059379e-03 -8.7869983e+01)	1.7324072e+05	2.8211091e+02	2.1334597e+00
2.13163e-05    	(1.0274271e+02 5.5764604e-03 -8.8655049e+01)	1.7279193e+05	2.8189923e+02	2.1294903e+00
2.18069e-05    	(1.0362043e+02 6.1435539e-03 -8.9415888e+01)	1.7235331e+05	2.8169195e+02	2.1256078e+00
2.22975e-05    	(1.0449729e+02 5.3279734e-03 -9.0176385e+01)	1.7191232e+05	2.8148317e+02	2.1217015e+00
2.27878e-05    	(1.0534824e+02 5.1536238e-03 -9.0911824e+01)	1.7148233e+05	2.8127918e+02	2.1178896e+00
2.32776e-05    	(1.0618490e+02 4.4463566e-03 -9.1633363e+01)	1.7105759e+05	2.8107731e+02	2.1141215e+00
2.3767e-05     	(1.0700312e+02 4.4307023e-03 -9.2337053e+01)	1.7064043e+05	2.8087869e+02	2.1104179e+00
2.42553e-05    	(1.0779585e+02 4.3081093e-03 -9.3016197e+01)	1.7023502e+05	2.8068537e+02	2.1068165e+00
2.47418e-05    	(1.0856662e+02 3.7535477e-03 -9.3675032e+01)	1.6983921e+05	2.8049632e+02	2.1032982e+00
2.52258e-05    	(1.0930398e+02 4.3475644e-03 -9.4302114e+01)	1.6945950e+05	2.8031464e+02	2.0999205e+00
2.57078e-05    	(1.1001142e+02 3.7818389e-03 -9.4900788e+01)	1.6909456e+05	2.8013984e+02	2.0966728e+00
2.61882e-05    	(1.1069351e+02 4.5754785e-03 -9.5476180e+01)	1.6874146e+05	2.7997036e+02	2.0935280e+00
2.66679e-05    	(1.1134183e+02 3.4919391e-03 -9.6019489e+01)	1.6840576e+05	2.7980914e+02	2.0905374e+00
2.7148e-05     	(1.1195717e+02 3.2818275e-03 -9.6532893e+01)	1.6808624e+05	2.7965539e+02	2.0876887e+00
2.76289e-05    	(1.1254492e+02 1.8240552e-03 -9.7020691e+01)	1.6778053e+05	2.7950804e+02	2.0849614e+00
2.81103e-05    	(1.1308998e+02 -2.6337626e-06 -9.7469911e+01)	1.6749677e+05	2.7937109e+02	2.0824285e+00
2.85919e-05    	(1.1360559e+02 -3.5140242e-03 -9.7893126e+01)	1.6722779e+05	2.7924107e+02	2.0800261e+00
2.90744e-05    	(1.1408266e+02 -8.3559257e-03 -9.8281559e+01)	1.6697860e+05	2.7912034e+02	2.0777985e+00
2.95579e-05    	(1.1452934e+02 -1.4013113e-02 -9.8644049e+01)	1.6674461e+05	2.7900676e+02	2.0757051e+00
3.00424e-05    	(1.1493475e+02 -2.1352878e-02 -9.8969196e+01)	1.6653247e+05	2.7890361e+02	2.0738058e+00
3.05275e-05    	(1.1531985e+02 -2.9808363e-02 -9.9278427e+01)	1.6632978e+05	2.7880477e+02	2.0719892e+00
3.1013e-05     	(1.1566970e+02 -3.9713284e-02 -9.9556014e+01)	1.6614581e+05	2.7871487e+02	2.0703390e+00
3.1499e-05     	(1.1599512e+02 -5.0553880e-02 -9.9814386e+01)	1.6597369e+05	2.7863057e+02	2.0687936e+00
3.19853e-05    	(1.1629599e+02 -6.2275134e-02 -1.0005233e+02)	1.6581385e+05	2.7855198e+02	2.0673563e+00
3.24722e-05    	(1.1658536e+02 -7.5024011e-02 -1.0028209e+02)	1.6565916e+05	2.7847577e+02	2.0659641e+00
3.29594e-05    	(1.1685595e+02 -8.7434867e-02 -1.0049723e+02)	1.6551387e+05	2.7840406e+02	2.0646556e+00
3.34468e-05    	(1.1712076e+02 -1.0051197e-01 -1.0070994e+02)	1.6537038e+05	2.7833304e+02	2.0633618e+00
3.39344e-05    	(1.1738000e+02 -1.1336871e-01 -1.0092033e+02)	1.6522882e+05	2.7826285e+02	2.0620845e+00
3.44215e-05    	(1.1763330e+02 -1.2584423e-01 -1.0112771e+02)	1.6508971e+05	2.7819381e+02	2.0608289e+00
3.49076e-05    	(1.1788711e+02 -1.3783654e-01 -1.0133877e+02)	1.6494929e+05	2.7812409e+02	2.0595613e+00
3.53922e-05    	(1.1814100e+02 -1.4850590e-01 -1.0155219e+02)	1.6480791e+05	2.7805378e+02	2.0582841e+00
3.58746e-05    	(1.1839564e+02 -1.5944996e-01 -1.0176862e+02)	1.6466538e+05	2.7798290e+02	2.0569966e+00
3.63544e-05    	(1.1864688e+02 -1.6868477e-01 -1.0198518e+02)	1.6452392e+05	2.7791255e+02	2.0557187e+00
3.68325e-05    	(1.1890395e+02 -1.7742178e-01 -1.0220843e+02)	1.6437873e+05	2.7784030e+02	2.0544068e+00
3.73099e-05    	(1.1916129e+02 -1.8489078e-01 -1.0243448e+02)	1.6423276e+05	2.7776772e+02	2.0530883e+00
3.77878e-05    	(1.1941004e+02 -1.9210246e-01 -1.0265365e+02)	1.6409127e+05	2.7769730e+02	2.0518097e+00
3.82684e-05    	(1.1967144e+02 -1.9833516e-01 -1.0288724e+02)	1.6394184e+05	2.7762294e+02	2.0504595e+00
3.8753e-05     	(1.1991978e+02 -2.0331378e-01 -1.0310917e+02)	1.6379977e+05	2.7755221e+02	2.0491756e+00
3.9241e-05     	(1.2017511e+02 -2.0927514e-01 -1.0333992e+02)	1.6365277e+05	2.7747897e+02	2.0478468e+00
3.97269e-05    	(1.2041652e+02 -2.1436822e-01 -1.0355941e+02)	1.6351313e+05	2.7740929e+02	2.0465837e+00
4.02107e-05    	(1.2065152e+02 -2.2021009e-01 -1.0377344e+02)	1.6337701e+05	2.7734136e+02	2.0453524e+00
4.0693e-05     	(1.2087121e+02 -2.2604527e-01 -1.0397518e+02)	1.6324878e+05	2.7727721e+02	2.0441913e+00
4.11743e-05    	(1.2107424e+02 -2.3377535e-01 -1.0416209e+02)	1.6312949e+05	2.7721734e+02	2.0431099e+00
4.16553e-05    	(1.2126093e+02 -2.4251923e-01 -1.0433555e+02)	1.6301901e+05	2.7716182e+02	2.0421077e+00
4.2136e-05     	(1.2142169e+02 -2.5275001e-01 -1.0448612e+02)	1.6292262e+05	2.7711310e+02	2.0412314e+00
4.26165e-05    	(1.2156241e+02 -2.6523118e-01 -1.0462029e+02)	1.6283669e+05	2.7706944e+02	2.0404483e+00
4.3097e-05     	(1.2166639e+02 -2.7989138e-01 -1.0472039e+02)	1.6277145e+05	2.7703592e+02	2.0398513e+00
4.35777e-05    	(1.2174796e+02 -2.9697394e-01 -1.0480221e+02)	1.6271803e+05	2.7700811e+02	2.0393597e+00
4.40589e-05    	(1.2179566e+02 -3.1567980e-01 -1.0485442e+02)	1.6268330e+05	2.7698949e+02	2.0390362e+00
4.45408e-05    	(1.2180621e+02 -3.3640669e-01 -1.0487291e+02)	1.6266946e+05	2.7698115e+02	2.0389006e+00
4.50233e-05    	(1.2179189e+02 -3.5847920e-01 -1.0487055e+02)	1.6266916e+05	2.7697944e+02	2.0388866e+00
4.5506e-05     	(1.2174246e+02 -3.8144330e-01 -1.0483644e+02)	1.6268909e+05	2.7698783e+02	2.0390556e+00
4.59884e-05    	(1.2167421e+02 -4.0438631e-01 -1.0478635e+02)	1.6271969e+05	2.7700152e+02	2.0393208e+00
4.64704e-05    	(1.2157999e+02 -4.2628903e-01 -1.0471218e+02)	1.6276575e+05	2.7702303e+02	2.0397267e+00
4.6952e-05     	(1.2146955e+02 -4.4752799e-01 -1.0462300e+02)	1.6282164e+05	2.7704950e+02	2.0402219e+00
4.74331e-05    	(1.2134597e+02 -4.6671448e-01 -1.0452049e+02)	1.6288632e+05	2.7708056e+02	2.0407980e+00
4.79138e-05    	(1.2121084e+02 -4.8421818e-01 -1.0440610e+02)	1.6295878e+05	2.7711567e+02	2.0414459e+00
4.83941e-05    	(1.2106988e+02 -4.9907639e-01 -1.0428466e+02)	1.6303578e+05	2.7715324e+02	2.0421361e+00
4.88745e-05    	(1.2091659e+02 -5.1248064e-01 -1.0414890e+02)	1.6312142e+05	2.7719529e+02	2.0429057e+00
4.93557e-05    	(1.2076282e+02 -5.2346656e-01 -1.0400959e+02)	1.6320897e+05	2.7723844e+02	2.0436937e+00
4.98383e-05    	(1.2059943e+02 -5.3203586e-01 -1.0385906e+02)	1.6330342e+05	2.7728525e+02	2.0445456e+00
5.0322e-05     	(1.2043592e+02 -5.3822759e-01 -1.0370532e+02)	1.6339925e+05	2.7733287e+02	2.0454110e+00
5.08068e-05    	(1.2026124e+02 -5.4310915e-01 -1.0353762e+02)	1.6350286e+05	2.7738444e+02	2.0463472e+00
5.12922e-05    	(1.2008115e+02 -5.4651433e-01 -1.0336255e+02)	1.6361050e+05	2.7743810e+02	2.0473205e+00
5.17774e-05    	(1.1989472e+02 -5.4818728e-01 -1.0318029e+02)	1.6372231e+05	2.7749384e+02	2.0483314e+00
5.22621e-05    	(1.1969898e+02 -5.4823516e-01 -1.0298627e+02)	1.6384012e+05	2.7755255e+02	2.0493965e+00
5.27458e-05    	(1.1949810e+02 -5.4783155e-01 -1.0278588e+02)	1.6396081e+05	2.7761257e+02	2.0504867e+00
5.32284e-05    	(1.1928492e+02 -5.4731287e-01 -1.0257367e+02)	1.6408811e+05	2.7767577e+02	2.0516357e+00
5.37098e-05    	(1.1906801e+02 -5.4597179e-01 -1.0235638e+02)	1.6421733e+05	2.7773977e+02	2.0528010e+00
5.41902e-05    	(1.1884373e+02 -5.4529690e-01 -1.0213123e+02)	1.6434997e+05	2.7780526e+02	2.0539957e+00
5.46696e-05    	(1.1861355e+02 -5.4525748e-01 -1.0190138e+02)	1.6448475e+05	2.7787164e+02	2.0552084e+00
5.51482e-05    	(1.1838130e+02 -5.4567045e-01 -1.0167069e+02)	1.6461963e+05	2.7793793e+02	2.0564210e+00
5.56261e-05    	(1.1815095e+02 -5.4600698e-01 -1.0144267e+02)	1.6475225e+05	2.7800292e+02	2.0576118e+00
5.61034e-05    	(1.1791834e+02 -5.4702962e-01 -1.0121338e+02)	1.6488526e+05	2.7806801e+02	2.0588056e+00
5.65802e-05    	(1.1769650e+02 -5.4716350e-01 -1.0099791e+02)	1.6501104e+05	2.7812953e+02	2.0599341e+00
5.70565e-05    	(1.1747517e+02 -5.4720646e-01 -1.0078395e+02)	1.6513582e+05	2.7819048e+02	2.0610532e+00
5.75316e-05    	(1.1726442e+02 -5.4621006e-01 -1.0058282e+02)	1.6525409e+05	2.7824826e+02	2.0621139e+00
5.80056e-05    	(1.1705757e+02 -5.4473498e-01 -1.0038741e+02)	1.6536964e+05	2.7830473e+02	2.0631504e+00
5.84786e-05    	(1.1686356e+02 -5.4173851e-01 -1.0020693e+02)	1.6547755e+05	2.7835749e+02	2.0641186e+00
5.89507e-05    	(1.1666563e+02 -5.3817827e-01 -1.0002351e+02)	1.6558744e+05	2.7841121e+02	2.0651045e+00
5.94222e-05    	(1.1648142e+02 -5.3270902e-01 -9.9857838e+01)	1.6568909e+05	2.7846102e+02	2.0660173e+00
5.98929e-05    	(1.1629048e+02 -5.2611101e-01 -9.9687241e+01)	1.6579407e+05	2.7851239e+02	2.0669595e+00
6.03626e-05    	(1.1611152e+02 -5.1772350e-01 -9.9531811e+01)	1.6589183e+05	2.7856031e+02	2.0678376e+00
6.08312e-05    	(1.1592531e+02 -5.0671762e-01 -9.9371475e+01)	1.6599348e+05	2.7861013e+02	2.0687505e+00
6.1299e-05     	(1.1574542e+02 -4.9305532e-01 -9.9223100e+01)	1.6609088e+05	2.7865802e+02	2.0696265e+00
6.17664e-05    	(1.1555238e+02 -4.7660321e-01 -9.9065744e+01)	1.6619477e+05	2.7870898e+02	2.0705599e+00
6.22342e-05    	(1.1535347e+02 -4.5694583e-01 -9.8909282e+01)	1.6630124e+05	2.7876135e+02	2.0715175e+00
6.27035e-05    	(1.1513503e+02 -4.3254248e-01 -9.8743080e+01)	1.6641721e+05	2.7881837e+02	2.0725604e+00
6.31751e-05    	(1.1489115e+02 -4.0380329e-01 -9.8561691e+01)	1.6654559e+05	2.7888143e+02	2.0737145e+00
6.36489e-05    	(1.1461870e+02 -3.6977439e-01 -9.8363921e+01)	1.6668797e+05	2.7895134e+02	2.0749942e+00
6.41229e-05    	(1.1431185e+02 -3.3134589e-01 -9.8145003e+01)	1.6684683e+05	2.7902920e+02	2.0764208e+00
6.45953e-05    	(1.1397599e+02 -2.8729348e-01 -9.7909962e+01)	1.6701881e+05	2.7911334e+02	2.0779642e+00
6.50652e-05    	(1.1360425e+02 -2.3946541e-01 -9.7649082e+01)	1.6720805e+05	2.7920572e+02	2.0796610e+00
6.55326e-05    	(1.1321615e+02 -1.8762688e-01 -9.7381274e+01)	1.6740361e+05	2.7930112e+02	2.0814139e+00
6.5997e-05     	(1.1279571e+02 -1.3347229e-01 -9.7090289e+01)	1.6761405e+05	2.7940360e+02	2.0832989e+00
6.6459e-05     	(1.1236013e+02 -7.7585921e-02 -9.6792244e+01)	1.6783002e+05	2.7950869e+02	2.0852326e+00
6.69191e-05    	(1.1190025e+02 -2.0721500e-02 -9.6477942e+01)	1.6805676e+05	2.7961894e+02	2.0872623e+00
6.73783e-05    	(1.1142621e+02 3.6554114e-02 -9.6157764e+01)	1.6828789e+05	2.7973113e+02	2.0893298e+00
6.78374e-05    	(1.1093727e+02 9.2552346e-02 -9.5828673e+01)	1.6852443e+05	2.7984577e+02	2.0914444e+00
6.82972e-05    	(1.1042969e+02 1.4707608e-01 -9.5488414e+01)	1.6876797e+05	2.7996356e+02	2.0936197e+00
6.87583e-05    	(1.0992284e+02 2.0063293e-01 -9.5155211e+01)	1.6900741e+05	2.8007898e+02	2.0957556e+00
6.92211e-05    	(1.0940218e+02 2.5130348e-01 -9.4813136e+01)	1.6925141e+05	2.8019625e+02	2.0979297e+00
6.96856e-05    	(1.0889201e+02 2.9945680e-01 -9.4484494e+01)	1.6948598e+05	2.8030842e+02	2.1000155e+00
7.01513e-05    	(1.0838741e+02 3.4456984e-01 -9.4160248e+01)	1.6971469e+05	2.8041711e+02	2.1020444e+00
7.06181e-05    	(1.0791493e+02 3.8779895e-01 -9.3862978e+01)	1.6992332e+05	2.8051546e+02	2.1038891e+00
7.10858e-05    	(1.0745798e+02 4.2872911e-01 -9.3574265e+01)	1.7012197e+05	2.8060851e+02	2.1056412e+00
7.15539e-05    	(1.0704254e+02 4.6823735e-01 -9.3319156e+01)	1.7029593e+05	2.8068903e+02	2.1071685e+00
7.20226e-05    	(1.0665395e+02 5.0658351e-01 -9.3082299e+01)	1.7045439e+05	2.8076178e+02	2.1085551e+00
7.24918e-05    	(1.0628718e+02 5.4382833e-01 -9.2860425e+01)	1.7059988e+05	2.8082797e+02	2.1098238e+00
7.29617e-05    	(1.0595046e+02 5.8122226e-01 -9.2663217e+01)	1.7072704e+05	2.8088494e+02	2.1109261e+00
7.34318e-05    	(1.0561438e+02 6.1815157e-01 -9.2461672e+01)	1.7085293e+05	2.8094116e+02	2.1120160e+00
7.39023e-05    	(1.0530287e+02 6.5485245e-01 -9.2280341e+01)	1.7096366e+05	2.8098978e+02	2.1129685e+00
7.43731e-05    	(1.0498809e+02 6.9089108e-01 -9.2091771e+01)	1.7107564e+05	2.8103896e+02	2.1139317e+00
7.48438e-05    	(1.0468655e+02 7.2631944e-01 -9.1912290e+01)	1.7117943e+05	2.8108398e+02	2.1148203e+00
7.53144e-05    	(1.0438114e+02 7.6055288e-01 -9.1724740e+01)	1.7128561e+05	2.8113018e+02	2.1157304e+00
7.57848e-05    	(1.0408099e+02 7.9302784e-01 -9.1537036e+01)	1.7138992e+05	2.8117548e+02	2.1166239e+00
7.62549e-05    	(1.0377765e+02 8.2429583e-01 -9.1341052e+01)	1.7149703e+05	2.8122211e+02	2.1175422e+00
7.67244e-05    	(1.0347355e+02 8.5391472e-01 -9.1138079e+01)	1.7160686e+05	2.8127016e+02	2.1184855e+00
7.71934e-05    	(1.0315878e+02 8.8269386e-01 -9.0918205e+01)	1.7172495e+05	2.8132229e+02	2.1195033e+00
7.76619e-05    	(1.0283654e+02 9.1020938e-01 -9.0683509e+01)	1.7185006e+05	2.8137788e+02	2.1205844e+00
7.81299e-05    	(1.0249798e+02 9.3787544e-01 -9.0425724e+01)	1.7198697e+05	2.8143928e+02	2.1217716e+00
7.8597e-05     	(1.0214004e+02 9.6686040e-01 -9.0140642e+01)	1.7213754e+05	2.8150735e+02	2.1230813e+00
7.9063e-05     	(1.0175147e+02 9.9682297e-01 -8.9818529e+01)	1.7230718e+05	2.8158467e+02	2.1245616e+00
7.95277e-05    	(1.0133359e+02 1.0286673e+00 -8.9460356e+01)	1.7249472e+05	2.8167066e+02	2.1262018e+00
7.99912e-05    	(1.0087506e+02 1.0631148e+00 -8.9053880e+01)	1.7270652e+05	2.8176846e+02	2.1280593e+00
8.04544e-05    	(1.0037682e+02 1.1005721e+00 -8.8602831e+01)	1.7294037e+05	2.8187688e+02	2.1301134e+00
8.09181e-05    	(9.9835507e+01 1.1401850e+00 -8.8104498e+01)	1.7319788e+05	2.8199676e+02	2.1323789e+00
8.13829e-05    	(9.9248695e+01 1.1820159e+00 -8.7557749e+01)	1.7347956e+05	2.8212830e+02	2.1348601e+00
8.1849e-05     	(9.8619790e+01 1.2253182e+00 -8.6965370e+01)	1.7378368e+05	2.8227071e+02	2.1375419e+00
8.23163e-05    	(9.7944894e+01 1.2688564e+00 -8.6327621e+01)	1.7411128e+05	2.8242451e+02	2.1404336e+00
8.27849e-05    	(9.7229247e+01 1.3124299e+00 -8.5649376e+01)	1.7445915e+05	2.8258804e+02	2.1435058e+00
8.32549e-05    	(9.6466772e+01 1.3546370e+00 -8.4925594e+01)	1.7483090e+05	2.8276317e+02	2.1467917e+00
8.37264e-05    	(9.5666159e+01 1.3951873e+00 -8.4165160e+01)	1.7522115e+05	2.8294713e+02	2.1502419e+00
8.41995e-05    	(9.4817173e+01 1.4328871e+00 -8.3356685e+01)	1.7563674e+05	2.8314338e+02	2.1539187e+00
8.46742e-05    	(9.3917829e+01 1.4670449e+00 -8.2500058e+01)	1.7607820e+05	2.8335217e+02	2.1578267e+00
8.51507e-05    	(9.2961789e+01 1.4969399e+00 -8.1587513e+01)	1.7654960e+05	2.8357539e+02	2.1620018e+00
8.56287e-05    	(9.1945514e+01 1.5219394e+00 -8.0617385e+01)	1.7705181e+05	2.8381321e+02	2.1664500e+00
8.61082e-05    	(9.0872796e+01 1.5418034e+00 -7.9594311e+01)	1.7758123e+05	2.8406358e+02	2.1711368e+00
8.65881e-05    	(8.9734214e+01 1.5553894e+00 -7.8509370e+01)	1.7814257e+05	2.8432878e+02	2.1761044e+00
8.70678e-05    	(8.8529253e+01 1.5616054e+00 -7.7363334e+01)	1.7873423e+05	2.8460772e+02	2.1813359e+00
8.75474e-05    	(8.7260372e+01 1.5586656e+00 -7.6158819e+01)	1.7935355e+05	2.8489890e+02	2.1868061e+00
8.80273e-05    	(8.5934496e+01 1.5463113e+00 -7.4903520e+01)	1.7999532e+05	2.8519961e+02	2.1924671e+00
8.85079e-05    	(8.4554959e+01 1.5229596e+00 -7.3599325e+01)	1.8065697e+05	2.8550849e+02	2.1982949e+00
8.8989e-05     	(8.3122361e+01 1.4854087e+00 -7.2245029e+01)	1.8133866e+05	2.8582556e+02	2.2042906e+00
8.94696e-05    	(8.1644871e+01 1.4312695e+00 -7.0848816e+01)	1.8203502e+05	2.8614802e+02	2.2104045e+00
8.99499e-05    	(8.0150737e+01 1.3615871e+00 -6.9438010e+01)	1.8272868e+05	2.8646734e+02	2.2164806e+00
9.04303e-05    	(7.8677814e+01 1.2786919e+00 -6.8049851e+01)	1.8339906e+05	2.8677395e+02	2.2223376e+00
9.09111e-05    	(7.7266357e+01 1.1876715e+00 -6.6725458e+01)	1.8402491e+05	2.8705831e+02	2.2277913e+00
9.13927e-05    	(7.5988178e+01 1.0969661e+00 -6.5536248e+01)	1.8457433e+05	2.8730645e+02	2.2325676e+00
9.18752e-05    	(7.4880023e+01 1.0121600e+00 -6.4518624e+01)	1.8503657e+05	2.8751428e+02	2.2365787e+00
9.23592e-05    	(7.3942441e+01 9.3493072e-01 -6.3671807e+01)	1.8541744e+05	2.8768497e+02	2.2398794e+00
9.28443e-05    	(7.3164304e+01 8.6466937e-01 -6.2981711e+01)	1.8572688e+05	2.8782332e+02	2.2425587e+00
9.3329e-05     	(7.2525902e+01 8.0054528e-01 -6.2427641e+01)	1.8597550e+05	2.8793426e+02	2.2447096e+00
9.38132e-05    	(7.2014441e+01 7.4237995e-01 -6.1994583e+01)	1.8617056e+05	2.8802114e+02	2.2463959e+00
9.42958e-05    	(7.1614854e+01 6.8898464e-01 -6.1666290e+01)	1.8631987e+05	2.8808755e+02	2.2476860e+00
9.47756e-05    	(7.1318128e+01 6.4058876e-01 -6.1433048e+01)	1.8642781e+05	2.8813547e+02	2.2486179e+00
9.52521e-05    	(7.1105462e+01 5.9657028e-01 -6.1276343e+01)	1.8650294e+05	2.8816878e+02	2.2492662e+00
9.5725e-05     	(7.0970310e+01 5.5723276e-01 -6.1189476e+01)	1.8654827e+05	2.8818883e+02	2.2496569e+00
9.61947e-05    	(7.0900135e+01 5.2270872e-01 -6.1161028e+01)	1.8656882e+05	2.8819785e+02	2.2498335e+00
9.66624e-05    	(7.0885126e+01 4.9261848e-01 -6.1181063e+01)	1.8656897e+05	2.8819782e+02	2.2498341e+00
9.71304e-05    	(7.0916594e+01 4.6719460e-01 -6.1243464e+01)	1.8655100e+05	2.8818971e+02	2.2496778e+00
9.75995e-05    	(7.0978580e+01 4.4505128e-01 -6.1331328e+01)	1.8652225e+05	2.8817684e+02	2.2494288e+00
9.80709e-05    	(7.1070015e+01 4.2722754e-01 -6.1446120e+01)	1.8648147e+05	2.8815856e+02	2.2490753e+00
9.85453e-05    	(7.1175358e+01 4.1276856e-01 -6.1571576e+01)	1.8643586e+05	2.8813815e+02	2.2486803e+00
9.90222e-05    	(7.1291013e+01 4.0169690e-01 -6.1705271e+01)	1.8638567e+05	2.8811564e+02	2.2482452e+00
9.94992e-05    	(7.1406695e+01 3.9450650e-01 -6.1837364e+01)	1.8633533e+05	2.8809306e+02	2.2478087e+00
9.99748e-05    	(7.1507398e+01 3.9015295e-01 -6.1953587e+01)	1.8629058e+05	2.8807294e+02	2.2474204e+00
0.00010045     	(7.1596023e+01 3.8826719e-01 -6.2057939e+01)	1.8624957e+05	2.8805440e+02	2.2470638e+00
0.000100924    	(7.1644881e+01 3.8944228e-01 -6.2123206e+01)	1.8622452e+05	2.8804303e+02	2.2468455e+00
0.0001014      	(7.1664634e+01 3.9216059e-01 -6.2161425e+01)	1.8620946e+05	2.8803601e+02	2.2467129e+00
0.000101876    	(7.1628837e+01 3.9667570e-01 -6.2145731e+01)	1.8621707e+05	2.8803918e+02	2.2467770e+00
0.000102354    	(7.1556091e+01 4.0171002e-01 -6.2094438e+01)	1.8623848e+05	2.8804844e+02	2.2469600e+00
0.000102834    	(7.1431406e+01 4.0760403e-01 -6.1993003e+01)	1.8628125e+05	2.8806730e+02	2.2473282e+00
0.000103314    	(7.1266249e+01 4.1245015e-01 -6.1850967e+01)	1.8634015e+05	2.8809333e+02	2.2478358e+00
0.000103793    	(7.1063224e+01 4.1730924e-01 -6.1670555e+01)	1.8641528e+05	2.8812665e+02	2.2484842e+00
0.000104271    	(7.0822197e+01 4.2111249e-01 -6.1451610e+01)	1.8650628e+05	2.8816708e+02	2.2492702e+00
0.000104747    	(7.0554481e+01 4.2277056e-01 -6.1203814e+01)	1.8660928e+05	2.8821291e+02	2.2501603e+00
0.000105221    	(7.0253744e+01 4.2246663e-01 -6.0921530e+01)	1.8672680e+05	2.8826527e+02	2.2511764e+00
0.000105694    	(6.9922065e+01 4.1928809e-01 -6.0606974e+01)	1.8685794e+05	2.8832375e+02	2.2523107e+00
0.000106166    	(6.9555325e+01 4.1224422e-01 -6.0255745e+01)	1.8700427e+05	2.8838904e+02	2.2535767e+00
0.000106638    	(6.9152371e+01 4.0074012e-01 -5.9866415e+01)	1.8716629e+05	2.8846138e+02	2.2549787e+00
0.00010711     	(6.8710224e+01 3.8384904e-01 -5.9435939e+01)	1.8734444e+05	2.8854090e+02	2.2565203e+00
0.000107583    	(6.8230087e+01 3.6084299e-01 -5.8965469e+01)	1.8753775e+05	2.8862716e+02	2.2581927e+00
0.000108056    	(6.7714404e+01 3.3193849e-01 -5.8458360e+01)	1.8774398e+05	2.8871908e+02	2.2599761e+00
0.000108531    	(6.7170501e+01 2.9680654e-01 -5.7922098e+01)	1.8795926e+05	2.8881490e+02	2.2618368e+00
0.000109006    	(6.6612292e+01 2.5640885e-01 -5.7370719e+01)	1.8817704e+05	2.8891166e+02	2.2637177e+00
0.000109483    	(6.6068200e+01 2.1055428e-01 -5.6831702e+01)	1.8838629e+05	2.8900446e+02	2.2655237e+00
0.000109962    	(6.5553743e+01 1.6173669e-01 -5.6320378e+01)	1.8858094e+05	2.8909064e+02	2.2672024e+00
0.000110442    	(6.5107934e+01 1.1071831e-01 -5.5873766e+01)	1.8874756e+05	2.8916429e+02	2.2686385e+00
0.000110925    	(6.4743962e+01 5.8951261e-02 -5.5505538e+01)	1.8888210e+05	2.8922370e+02	2.2697977e+00
0.000111408    	(6.4485026e+01 9.0988494e-03 -5.5238166e+01)	1.8897737e+05	2.8926575e+02	2.2706183e+00
0.000111891    	(6.4338105e+01 -3.8037940e-02 -5.5078276e+01)	1.8903214e+05	2.8928996e+02	2.2710904e+00
0.000112371    	(6.4308276e+01 -8.1593619e-02 -5.5030587e+01)	1.8904556e+05	2.8929599e+02	2.2712068e+00
0.000112848    	(6.4385378e+01 -1.1924853e-01 -5.5085655e+01)	1.8902171e+05	2.8928566e+02	2.2710029e+00
0.000113324    	(6.4564188e+01 -1.5209173e-01 -5.5237463e+01)	1.8896287e+05	2.8925998e+02	2.2704984e+00
0.0001138      	(6.4830935e+01 -1.7968672e-01 -5.5472562e+01)	1.8887382e+05	2.8922106e+02	2.2697343e+00
0.000114276    	(6.5176636e+01 -2.0184489e-01 -5.5782658e+01)	1.8875726e+05	2.8917005e+02	2.2687336e+00
0.000114752    	(6.5591936e+01 -2.1805914e-01 -5.6157848e+01)	1.8861650e+05	2.8910840e+02	2.2675248e+00
0.000115229    	(6.6084675e+01 -2.3038518e-01 -5.6605046e+01)	1.8844833e+05	2.8903468e+02	2.2660802e+00
0.000115707    	(6.6631126e+01 -2.3641645e-01 -5.7101004e+01)	1.8826093e+05	2.8895247e+02	2.2644699e+00
0.000116183    	(6.7237553e+01 -2.3680996e-01 -5.7650642e+01)	1.8805146e+05	2.8886048e+02	2.2626691e+00
0.000116658    	(6.7889939e+01 -2.3478819e-01 -5.8240819e+01)	1.8782449e+05	2.8876072e+02	2.2607173e+00
0.000117133    	(6.8574936e+01 -2.2841281e-01 -5.8858432e+01)	1.8758393e+05	2.8865485e+02	2.2586475e+00
0.000117609    	(6.9293394e+01 -2.1823873e-01 -5.9503718e+01)	1.8732951e+05	2.8854276e+02	2.2564575e+00
0.000118086    	(7.0030391e+01 -2.0820475e-01 -6.0162623e+01)	1.8706590e+05	2.8842646e+02	2.2541872e+00
0.000118563    	(7.0780984e+01 -1.9608230e-01 -6.0832057e+01)	1.8679457e+05	2.8830660e+02	2.2518491e+00
0.000119038    	(7.1527054e+01 -1.8288788e-01 -6.1492321e+01)	1.8652271e+05	2.8818634e+02	2.2495053e+00
0.000119509    	(7.2284397e+01 -1.7128377e-01 -6.2162374e+01)	1.8624346e+05	2.8806264e+02	2.2470963e+00
0.00011998     	(7.3021854e+01 -1.5952637e-01 -6.2808985e+01)	1.8596975e+05	2.8794125e+02	2.2447341e+00
0.00012045     	(7.3772647e+01 -1.4823161e-01 -6.3468882e+01)	1.8568761e+05	2.8781593e+02	2.2422976e+00
0.00012092     	(7.4495562e+01 -1.3885496e-01 -6.4098752e+01)	1.8541439e+05	2.8769445e+02	2.2399372e+00
0.00012139     	(7.5226507e+01 -1.3052295e-01 -6.4738203e+01)	1.8513451e+05	2.8756979e+02	2.2375175e+00
0.00012186     	(7.5926237e+01 -1.2378566e-01 -6.5345864e+01)	1.8486530e+05	2.8744978e+02	2.2351893e+00
0.000122331    	(7.6630653e+01 -1.1954548e-01 -6.5961441e+01)	1.8459062e+05	2.8732713e+02	2.2328122e+00
0.000122801    	(7.7297917e+01 -1.1658404e-01 -6.6541625e+01)	1.8432895e+05	2.8721018e+02	2.2305469e+00
0.000123273    	(7.7966151e+01 -1.1594868e-01 -6.7126888e+01)	1.8406352e+05	2.8709135e+02	2.2282475e+00
0.000123745    	(7.8599365e+01 -1.1695677e-01 -6.7680058e+01)	1.8381036e+05	2.8697790e+02	2.2260535e+00
0.000124218    	(7.9230453e+01 -1.1977665e-01 -6.8236058e+01)	1.8355495e+05	2.8686327e+02	2.2238387e+00
0.000124692    	(7.9828755e+01 -1.2398248e-01 -6.8763220e+01)	1.8331091e+05	2.8675361e+02	2.2217215e+00
0.000125167    	(8.0419992e+01 -1.2953859e-01 -6.9288726e+01)	1.8306688e+05	2.8664381e+02	2.2196032e+00
0.000125645    	(8.0986611e+01 -1.3478454e-01 -6.9793155e+01)	1.8283123e+05	2.8653764e+02	2.2175566e+00
0.000126121    	(8.1538959e+01 -1.4187219e-01 -7.0289558e+01)	1.8259869e+05	2.8643272e+02	2.2155358e+00
0.000126587    	(8.2055301e+01 -1.4806255e-01 -7.0755442e+01)	1.8237968e+05	2.8633380e+02	2.2136318e+00
0.000127044    	(8.2549185e+01 -1.5329282e-01 -7.1205387e+01)	1.8216765e+05	2.8623787e+02	2.2117872e+00
0.000127502    	(8.3023691e+01 -1.5871189e-01 -7.1640008e+01)	1.8196233e+05	2.8614489e+02	2.2100004e+00
0.000127958    	(8.3481377e+01 -1.6284220e-01 -7.2062332e+01)	1.8176225e+05	2.8605414e+02	2.2082581e+00
0.000128413    	(8.3925206e+01 -1.6544507e-01 -7.2474994e+01)	1.8156644e+05	2.8596520e+02	2.2065520e+00
0.000128867    	(8.4350119e+01 -1.6819149e-01 -7.2872556e+01)	1.8137745e+05	2.8587927e+02	2.2049046e+00
0.000129322    	(8.4763565e+01 -1.6750456e-01 -7.3262778e+01)	1.8119156e+05	2.8579458e+02	2.2032830e+00
0.000129776    	(8.5160010e+01 -1.6736623e-01 -7.3638801e+01)	1.8101199e+05	2.8571269e+02	2.2017159e+00
0.00013023     	(8.5545919e+01 -1.6430682e-01 -7.4007387e+01)	1.8083570e+05	2.8563216e+02	2.2001763e+00
0.000130687    	(8.5917298e+01 -1.6084809e-01 -7.4364576e+01)	1.8066436e+05	2.8555378e+02	2.1986792e+00
0.000131145    	(8.6275310e+01 -1.5479463e-01 -7.4710971e+01)	1.8049783e+05	2.8547747e+02	2.1972231e+00
0.000131606    	(8.6623946e+01 -1.4855187e-01 -7.5049930e+01)	1.8033445e+05	2.8540250e+02	2.1957938e+00
0.00013207     	(8.6959012e+01 -1.3965265e-01 -7.5377767e+01)	1.8017575e+05	2.8532953e+02	2.1944043e+00
0.000132536    	(8.7287178e+01 -1.3071606e-01 -7.5699456e+01)	1.8001974e+05	2.8525774e+02	2.1930378e+00
0.000133006    	(8.7602511e+01 -1.1932767e-01 -7.6010609e+01)	1.7986816e+05	2.8518783e+02	2.1917091e+00
0.000133477    	(8.7905748e+01 -1.0790593e-01 -7.6310679e+01)	1.7972139e+05	2.8512004e+02	2.1904217e+00
0.000133949    	(8.8199304e+01 -9.4851209e-02 -7.6601686e+01)	1.7957850e+05	2.8505395e+02	2.1891677e+00
0.00013442     	(8.8479720e+01 -8.1985939e-02 -7.6880356e+01)	1.7944096e+05	2.8499024e+02	2.1879599e+00
0.000134892    	(8.8747358e+01 -6.7623293e-02 -7.7147183e+01)	1.7930861e+05	2.8492881e+02	2.1867968e+00
0.000135365    	(8.9010191e+01 -5.3807202e-02 -7.7409133e+01)	1.7917814e+05	2.8486821e+02	2.1856498e+00
0.000135837    	(8.9248883e+01 -3.8877779e-02 -7.7647223e+01)	1.7905864e+05	2.8481260e+02	2.1845986e+00
0.000136311    	(8.9494609e+01 -2.4594876e-02 -7.7891618e+01)	1.7893516e+05	2.8475507e+02	2.1835117e+00
0.000136786    	(8.9717476e+01 -1.0237812e-02 -7.8111891e+01)	1.7882309e+05	2.8470281e+02	2.1825249e+00