# Region type : patch inlet
# Faces  :     7870
# Area   :     7.0477774e-05
# Time         	sum(phi)
0              	0.0000000e+00
5.62517e-07    	-2.1755979e-02
1.00486e-06    	-2.0056701e-02
1.44172e-06    	-1.9336690e-02
1.87835e-06    	-1.9041519e-02
2.31864e-06    	-1.8991522e-02
2.77704e-06    	-1.8985084e-02
3.26432e-06    	-1.8968446e-02
3.76282e-06    	-1.8931488e-02
4.26106e-06    	-1.8911937e-02
4.76173e-06    	-1.8927977e-02
5.26405e-06    	-1.8966115e-02
5.76286e-06    	-1.9005864e-02
6.26046e-06    	-1.9034676e-02
6.76084e-06    	-1.9060260e-02
7.26547e-06    	-1.9085414e-02
7.76906e-06    	-1.9118774e-02
8.26759e-06    	-1.9163859e-02
8.76244e-06    	-1.9227471e-02
9.25495e-06    	-1.9311396e-02
9.74585e-06    	-1.9414268e-02
1.02355e-05    	-1.9536175e-02
1.07232e-05    	-1.9673971e-02
1.12085e-05    	-1.9821581e-02
1.16911e-05    	-1.9980378e-02
1.21704e-05    	-2.0142300e-02
1.26454e-05    	-2.0306413e-02
1.31158e-05    	-2.0469928e-02
1.35844e-05    	-2.0635182e-02
1.4053e-05     	-2.0796177e-02
1.4523e-05     	-2.0959203e-02
1.49951e-05    	-2.1120948e-02
1.54694e-05    	-2.1281888e-02
1.59461e-05    	-2.1443785e-02
1.6426e-05     	-2.1605804e-02
1.69088e-05    	-2.1771475e-02
1.73938e-05    	-2.1934560e-02
1.78806e-05    	-2.2101909e-02
1.83691e-05    	-2.2266549e-02
1.8859e-05     	-2.2434710e-02
1.93503e-05    	-2.2598148e-02
1.98425e-05    	-2.2762971e-02
2.03343e-05    	-2.2924957e-02
2.08255e-05    	-2.3082964e-02
2.13163e-05    	-2.3239741e-02
2.18069e-05    	-2.3391280e-02
2.22975e-05    	-2.3541690e-02
2.27878e-05    	-2.3685938e-02
2.32776e-05    	-2.3827266e-02
2.3767e-05     	-2.3964124e-02
2.42553e-05    	-2.4096029e-02
2.47418e-05    	-2.4223115e-02
2.52258e-05    	-2.4343754e-02
2.57078e-05    	-2.4458936e-02
2.61882e-05    	-2.4569139e-02
2.66679e-05    	-2.4673157e-02
2.7148e-05     	-2.4771231e-02
2.76289e-05    	-2.4864102e-02
2.81103e-05    	-2.4949699e-02
2.85919e-05    	-2.5030103e-02
2.90744e-05    	-2.5103636e-02
2.95579e-05    	-2.5171937e-02
3.00424e-05    	-2.5233369e-02
3.05275e-05    	-2.5291246e-02
3.1013e-05     	-2.5342924e-02
3.1499e-05     	-2.5390656e-02
3.19853e-05    	-2.5434059e-02
3.24722e-05    	-2.5475541e-02
3.29594e-05    	-2.5513794e-02
3.34468e-05    	-2.5551028e-02
3.39344e-05    	-2.5587143e-02
3.44215e-05    	-2.5622519e-02
3.49076e-05    	-2.5657948e-02
3.53922e-05    	-2.5693313e-02
3.58746e-05    	-2.5728812e-02
3.63544e-05    	-2.5764139e-02
3.68325e-05    	-2.5800350e-02
3.73099e-05    	-2.5836615e-02
3.77878e-05    	-2.5871704e-02
3.82684e-05    	-2.5908934e-02
3.8753e-05     	-2.5943982e-02
3.9241e-05     	-2.5980421e-02
3.97269e-05    	-2.6014491e-02
4.02107e-05    	-2.6047881e-02
4.0693e-05     	-2.6078482e-02
4.11743e-05    	-2.6106762e-02
4.16553e-05    	-2.6132488e-02
4.2136e-05     	-2.6154226e-02
4.26165e-05    	-2.6172618e-02
4.3097e-05     	-2.6185456e-02
4.35777e-05    	-2.6194959e-02
4.40589e-05    	-2.6199128e-02
4.45408e-05    	-2.6197770e-02
4.50233e-05    	-2.6192731e-02
4.5506e-05     	-2.6182600e-02
4.59884e-05    	-2.6169793e-02
4.64704e-05    	-2.6153276e-02
4.6952e-05     	-2.6134672e-02
4.74331e-05    	-2.6114499e-02
4.79138e-05    	-2.6093098e-02
4.83941e-05    	-2.6071010e-02
4.88745e-05    	-2.6047434e-02
4.93557e-05    	-2.6024069e-02
4.98383e-05    	-2.5999692e-02
5.0322e-05     	-2.5975391e-02
5.08068e-05    	-2.5949487e-02
5.12922e-05    	-2.5923007e-02
5.17774e-05    	-2.5895566e-02
5.22621e-05    	-2.5866628e-02
5.27458e-05    	-2.5836542e-02
5.32284e-05    	-2.5804450e-02
5.37098e-05    	-2.5771612e-02
5.41902e-05    	-2.5736954e-02
5.46696e-05    	-2.5701180e-02
5.51482e-05    	-2.5664875e-02
5.56261e-05    	-2.5628467e-02
5.61034e-05    	-2.5591597e-02
5.65802e-05    	-2.5556622e-02
5.70565e-05    	-2.5521590e-02
5.75316e-05    	-2.5488680e-02
5.80056e-05    	-2.5456450e-02
5.84786e-05    	-2.5426579e-02
5.89507e-05    	-2.5396161e-02
5.94222e-05    	-2.5368635e-02
5.98929e-05    	-2.5339878e-02
6.03626e-05    	-2.5313703e-02
6.08312e-05    	-2.5286433e-02
6.1299e-05     	-2.5260892e-02
6.17664e-05    	-2.5233011e-02
6.22342e-05    	-2.5205253e-02
6.27035e-05    	-2.5174454e-02
6.31751e-05    	-2.5140239e-02
6.36489e-05    	-2.5101627e-02
6.41229e-05    	-2.5058118e-02
6.45953e-05    	-2.5009817e-02
6.50652e-05    	-2.4955756e-02
6.55326e-05    	-2.4899173e-02
6.5997e-05     	-2.4836961e-02
6.6459e-05     	-2.4772706e-02
6.69191e-05    	-2.4704343e-02
6.73783e-05    	-2.4633831e-02
6.78374e-05    	-2.4560264e-02
6.82972e-05    	-2.4483858e-02
6.87583e-05    	-2.4406688e-02
6.92211e-05    	-2.4326784e-02
6.96856e-05    	-2.4247249e-02
7.01513e-05    	-2.4167151e-02
7.06181e-05    	-2.4090315e-02
7.10858e-05    	-2.4014190e-02
7.15539e-05    	-2.3943279e-02
7.20226e-05    	-2.3874834e-02
7.24918e-05    	-2.3809145e-02
7.29617e-05    	-2.3746607e-02
7.34318e-05    	-2.3683390e-02
7.39023e-05    	-2.3623052e-02
7.43731e-05    	-2.3561344e-02
7.48438e-05    	-2.3500984e-02
7.53144e-05    	-2.3439651e-02
7.57848e-05    	-2.3378832e-02
7.62549e-05    	-2.3317263e-02
7.67244e-05    	-2.3255619e-02
7.71934e-05    	-2.3192209e-02
7.76619e-05    	-2.3127604e-02
7.81299e-05    	-2.3060347e-02
7.8597e-05     	-2.2989746e-02
7.9063e-05     	-2.2913937e-02
7.95277e-05    	-2.2833038e-02
7.99912e-05    	-2.2744643e-02
8.04544e-05    	-2.2649197e-02
8.09181e-05    	-2.2545933e-02
8.13829e-05    	-2.2434625e-02
8.1849e-05     	-2.2315723e-02
8.23163e-05    	-2.2189139e-02
8.27849e-05    	-2.2055567e-02
8.32549e-05    	-2.1914277e-02
8.37264e-05    	-2.1766559e-02
8.41995e-05    	-2.1610865e-02
8.46742e-05    	-2.1447193e-02
8.51507e-05    	-2.1274190e-02
8.56287e-05    	-2.1091037e-02
8.61082e-05    	-2.0897870e-02
8.65881e-05    	-2.0692936e-02
8.70678e-05    	-2.0475551e-02
8.75474e-05    	-2.0245467e-02
8.80273e-05    	-2.0002973e-02
8.85079e-05    	-1.9747975e-02
8.8989e-05     	-1.9480350e-02
8.94696e-05    	-1.9200263e-02
8.99499e-05    	-1.8911602e-02
9.04303e-05    	-1.8620501e-02
9.09111e-05    	-1.8334642e-02
9.13927e-05    	-1.8069495e-02
9.18752e-05    	-1.7835617e-02
9.23592e-05    	-1.7635790e-02
9.28443e-05    	-1.7468771e-02
9.3329e-05     	-1.7331047e-02
9.38132e-05    	-1.7220254e-02
9.42958e-05    	-1.7133321e-02
9.47756e-05    	-1.7068523e-02
9.52521e-05    	-1.7021856e-02
9.5725e-05     	-1.6992284e-02
9.61947e-05    	-1.6976727e-02
9.66624e-05    	-1.6973475e-02
9.71304e-05    	-1.6980364e-02
9.75995e-05    	-1.6993990e-02
9.80709e-05    	-1.7014043e-02
9.85453e-05    	-1.7036994e-02
9.90222e-05    	-1.7062388e-02
9.94992e-05    	-1.7087196e-02
9.99748e-05    	-1.7109360e-02
0.00010045     	-1.7128342e-02
0.000100924    	-1.7139359e-02
0.0001014      	-1.7143553e-02
0.000101876    	-1.7136259e-02
0.000102354    	-1.7120998e-02
0.000102834    	-1.7094368e-02
0.000103314    	-1.7059352e-02
0.000103793    	-1.7015702e-02
0.000104271    	-1.6964246e-02
0.000104747    	-1.6906995e-02
0.000105221    	-1.6843007e-02
0.000105694    	-1.6772424e-02
0.000106166    	-1.6694873e-02
0.000106638    	-1.6609630e-02
0.00010711     	-1.6516119e-02
0.000107583    	-1.6414384e-02
0.000108056    	-1.6304892e-02
0.000108531    	-1.6188384e-02
0.000109006    	-1.6068209e-02
0.000109483    	-1.5949490e-02
0.000109962    	-1.5836292e-02
0.000110442    	-1.5736944e-02
0.000110925    	-1.5654595e-02
0.000111408    	-1.5595180e-02
0.000111891    	-1.5560461e-02
0.000112371    	-1.5551985e-02
0.000112848    	-1.5567674e-02
0.000113324    	-1.5606744e-02
0.0001138      	-1.5665887e-02
0.000114276    	-1.5742825e-02
0.000114752    	-1.5835704e-02
0.000115229    	-1.5945697e-02
0.000115707    	-1.6067310e-02
0.000116183    	-1.6202647e-02
0.000116658    	-1.6346940e-02
0.000117133    	-1.6498458e-02
0.000117609    	-1.6656541e-02
0.000118086    	-1.6818168e-02
0.000118563    	-1.6981529e-02
0.000119038    	-1.7143977e-02
0.000119509    	-1.7307129e-02
0.00011998     	-1.7465866e-02
0.00012045     	-1.7626249e-02
0.00012092     	-1.7780151e-02
0.00012139     	-1.7934924e-02
0.00012186     	-1.8082774e-02
0.000122331    	-1.8230655e-02
0.000122801    	-1.8370494e-02
0.000123273    	-1.8510035e-02
0.000123745    	-1.8641828e-02
0.000124218    	-1.8772926e-02
0.000124692    	-1.8896537e-02
0.000125167    	-1.9018867e-02
0.000125645    	-1.9135356e-02
0.000126121    	-1.9249185e-02
0.000126587    	-1.9355040e-02
0.000127044    	-1.9456359e-02
0.000127502    	-1.9552926e-02
0.000127958    	-1.9646462e-02
0.000128413    	-1.9736288e-02
0.000128867    	-1.9822543e-02
0.000129322    	-1.9905762e-02
0.000129776    	-1.9985857e-02
0.00013023     	-2.0063120e-02
0.000130687    	-2.0137480e-02
0.000131145    	-2.0208769e-02
0.000131606    	-2.0278067e-02
0.00013207     	-2.0344213e-02
0.000132536    	-2.0408997e-02
0.000133006    	-2.0470593e-02
0.000133477    	-2.0529923e-02
0.000133949    	-2.0587016e-02
0.00013442     	-2.0641107e-02
0.000134892    	-2.0692744e-02
0.000135365    	-2.0742790e-02
0.000135837    	-2.0788401e-02
0.000136311    	-2.0834852e-02
0.000136786    	-2.0876806e-02
0.000137262    	-2.0919623e-02
0.000137737    	-2.0959385e-02
0.000138211    	-2.0999546e-02
0.000138683    	-2.1037795e-02
0.000139154    	-2.1076867e-02
0.000139624    	-2.1115191e-02
0.000140095    	-2.1152635e-02
0.000140566    	-2.1191133e-02
0.000141037    	-2.1229021e-02
0.000141507    	-2.1267417e-02
0.000141976    	-2.1306174e-02
0.000142446    	-2.1345729e-02
0.000142915    	-2.1385018e-02
0.000143384    	-2.1427091e-02
0.000143851    	-2.1467667e-02
0.000144316    	-2.1510703e-02
0.000144781    	-2.1553716e-02
0.000145246    	-2.1598098e-02
0.000145711    	-2.1644071e-02
0.000146179    	-2.1691737e-02
0.000146646    	-2.1740082e-02
0.000147112    	-2.1791414e-02
0.000147576    	-2.1843214e-02
0.00014804     	-2.1896508e-02
0.000148504    	-2.1952866e-02
0.000148969    	-2.2009166e-02
0.000149434    	-2.2068758e-02
0.0001499      	-2.2129046e-02
0.000150366    	-2.2191529e-02
0.000150833    	-2.2255252e-02
0.0001513      	-2.2320889e-02
0.000151769    	-2.2387330e-02
0.000152238    	-2.2454693e-02
0.000152709    	-2.2523302e-02
0.00015318     	-2.2591566e-02
0.000153651    	-2.2661459e-02
0.000154124    	-2.2730543e-02
0.000154598    	-2.2799928e-02
0.000155072    	-2.2868356e-02
0.000155547    	-2.2937382e-02
0.000156023    	-2.3004615e-02
0.0001565      	-2.3071619e-02
0.000156977    	-2.3137523e-02
0.000157456    	-2.3200761e-02
0.000157936    	-2.3264800e-02
0.000158417    	-2.3324590e-02
0.000158899    	-2.3384831e-02
0.000159381    	-2.3442492e-02
0.000159863    	-2.3495915e-02
0.000160345    	-2.3550853e-02
0.000160827    	-2.3600632e-02
0.000161311    	-2.3650337e-02
0.000161794    	-2.3696926e-02
0.000162277    	-2.3742516e-02
0.00016276     	-2.3786352e-02
0.000163243    	-2.3827392e-02
0.000163726    	-2.3869404e-02
0.00016421     	-2.3909606e-02
0.000164694    	-2.3949269e-02
0.000165179    	-2.3989869e-02
0.000165666    	-2.4029090e-02
0.000166153    	-2.4070093e-02
0.000166639    	-2.4109104e-02
0.000167124    	-2.4151497e-02
0.000167608    	-2.4192221e-02
0.000168091    	-2.4233668e-02
0.000168573    	-2.4277123e-02
0.000169054    	-2.4319192e-02
0.000169534    	-2.4363594e-02
0.000170013    	-2.4406792e-02
0.00017049     	-2.4453165e-02
0.000170965    	-2.4497273e-02
0.000171437    	-2.4542130e-02
0.000171907    	-2.4588836e-02
0.000172375    	-2.4634081e-02
0.000172844    	-2.4680956e-02
0.000173314    	-2.4726140e-02
0.000173784    	-2.4775031e-02
0.000174256    	-2.4820747e-02
0.000174729    	-2.4868604e-02
0.000175203    	-2.4916141e-02
0.000175678    	-2.4963022e-02
0.000176153    	-2.5010979e-02
0.00017663     	-2.5056776e-02
0.000177107    	-2.5104714e-02
0.000177585    	-2.5149376e-02
0.000178064    	-2.5196561e-02
0.000178543    	-2.5240895e-02
0.000179023    	-2.5285913e-02
0.000179504    	-2.5329362e-02
0.000179985    	-2.5372094e-02
0.000180466    	-2.5414646e-02
0.000180948    	-2.5454410e-02
0.00018143     	-2.5494694e-02
0.000181913    	-2.5532234e-02
0.000182395    	-2.5570000e-02
0.000182874    	-2.5604450e-02
0.000183344    	-2.5638002e-02
0.000183799    	-2.5668354e-02
0.000184239    	-2.5697081e-02
0.000184675    	-2.5723425e-02
0.000185107    	-2.5749028e-02
0.000185539    	-2.5772661e-02
0.000185973    	-2.5795588e-02
0.000186408    	-2.5816532e-02
0.000186845    	-2.5837063e-02
0.000187285    	-2.5856160e-02
0.000187728    	-2.5874715e-02
0.000188174    	-2.5892146e-02
0.000188622    	-2.5909350e-02
0.000189071    	-2.5926182e-02
0.000189522    	-2.5942907e-02
0.000189973    	-2.5959377e-02
0.000190425    	-2.5974344e-02
0.000190877    	-2.5985866e-02
0.00019133     	-2.5990652e-02
0.000191783    	-2.5985156e-02
0.000192236    	-2.5963191e-02
0.000192689    	-2.5921524e-02
0.000193143    	-2.5855023e-02
0.000193597    	-2.5766270e-02
0.000194052    	-2.5656667e-02
0.000194507    	-2.5531819e-02
0.000194963    	-2.5391364e-02
0.000195419    	-2.5239238e-02
0.000195875    	-2.5076930e-02
0.000196332    	-2.4907575e-02
0.00019679     	-2.4732986e-02
0.000197249    	-2.4553243e-02
0.000197708    	-2.4370007e-02
0.000198167    	-2.4182131e-02
0.000198626    	-2.3990384e-02
0.000199086    	-2.3795962e-02
0.000199546    	-2.3600390e-02
0.000200006    	-2.3404513e-02
0.000200467    	-2.3207148e-02
0.000200927    	-2.3007513e-02
0.000201387    	-2.2804092e-02
0.000201847    	-2.2595340e-02
0.000202306    	-2.2379077e-02
0.000202766    	-2.2152188e-02
0.000203225    	-2.1912423e-02
0.000203684    	-2.1657377e-02
0.000204142    	-2.1384120e-02
0.000204601    	-2.1091157e-02
0.00020506     	-2.0775628e-02
0.000205518    	-2.0434401e-02
0.000205974    	-2.0065211e-02
0.000206424    	-1.9666982e-02
0.000206862    	-1.9241894e-02
0.000207298    	-1.8784609e-02
0.000207738    	-1.8287424e-02
0.000208184    	-1.7753890e-02
0.000208632    	-1.7193373e-02
0.000209081    	-1.6616508e-02
0.000209529    	-1.6032007e-02
0.000209976    	-1.5442951e-02
0.000210423    	-1.4848977e-02
0.000210871    	-1.4249267e-02
0.000211318    	-1.3642591e-02
0.000211767    	-1.3026706e-02
0.000212215    	-1.2396947e-02
0.000212664    	-1.1747422e-02
0.000213114    	-1.1070899e-02
0.000213565    	-1.0361262e-02
0.000214017    	-9.6144387e-03
0.000214469    	-8.8341147e-03
0.000214921    	-8.0305893e-03
0.000215374    	-7.2168371e-03
0.000215827    	-6.4090190e-03
0.000216281    	-5.6236843e-03
0.000216735    	-4.8809517e-03
0.000217189    	-4.1965334e-03
0.000217643    	-3.5858307e-03
0.000218097    	-3.0561978e-03
0.00021855     	-2.6127726e-03
0.000219004    	-2.2556419e-03
0.000219457    	-1.9827760e-03
0.00021991     	-1.7910971e-03
0.000220362    	-1.6716524e-03
0.000220815    	-1.6137543e-03
0.000221266    	-1.6056054e-03
0.000221718    	-1.6441030e-03
0.000222169    	-1.7176633e-03
0.000222621    	-1.8183588e-03
0.000223071    	-1.9381385e-03
0.000223522    	-2.0686540e-03
0.000223973    	-2.2014376e-03
0.000224423    	-2.3288222e-03
0.000224873    	-2.4428439e-03
0.000225323    	-2.5391815e-03
0.000225773    	-2.6122199e-03
0.000226223    	-2.6601201e-03
0.000226673    	-2.6790808e-03
0.000227123    	-2.6661239e-03
0.000227574    	-2.6191513e-03
0.000228024    	-2.5347632e-03
0.000228475    	-2.4121093e-03
0.000228925    	-2.2503472e-03
0.000229376    	-2.0512768e-03
0.000229827    	-1.8198013e-03
0.000230278    	-1.5600743e-03
0.00023073     	-1.2807672e-03
0.000231181    	-9.8924840e-04
0.000231633    	-6.9444305e-04
0.000232085    	-4.0523286e-04
0.000232537    	-1.2900304e-04
0.000232989    	1.2531723e-04
0.000233441    	3.5263373e-04
0.000233893    	5.4921936e-04
0.000234345    	7.1442805e-04
0.000234797    	8.5001109e-04
0.000235249    	9.5772282e-04
0.000235701    	1.0404088e-03
0.000236152    	1.0978879e-03
0.000236603    	1.1319508e-03
0.000237055    	1.1472206e-03
0.000237506    	1.1480430e-03
0.000237957    	1.1372396e-03
0.000238409    	1.1176358e-03
0.00023886     	1.0923124e-03
0.000239312    	1.0637761e-03
0.000239765    	1.0339563e-03
0.000240219    	1.0045410e-03
0.000240673    	9.7652413e-04
0.000241127    	9.5126679e-04
0.000241583    	9.3065182e-04
0.000242039    	9.1675137e-04
0.000242496    	9.1160579e-04
0.000242954    	9.1691105e-04
0.000243413    	9.3482472e-04
0.000243872    	9.6713098e-04
0.000244332    	1.0161094e-03
0.000244792    	1.0840041e-03
0.000245253    	1.1716256e-03
0.000245714    	1.2798106e-03
0.000246176    	1.4091142e-03
0.000246638    	1.5598594e-03
0.0002471      	1.7308435e-03
0.000247563    	1.9205581e-03
0.000248026    	2.1257808e-03
0.000248489    	2.3435620e-03
0.000248952    	2.5700113e-03
0.000249415    	2.8017636e-03
0.000249878    	3.0353066e-03
0.000250342    	3.2668918e-03
0.000250805    	3.4933594e-03
0.000251269    	3.7126196e-03
0.000251732    	3.9221235e-03
0.000252196    	4.1204802e-03
0.000252659    	4.3071139e-03
0.000253122    	4.4815829e-03
0.000253584    	4.6440430e-03
0.000254047    	4.7944222e-03
0.000254509    	4.9324454e-03
0.000254971    	5.0584667e-03
0.000255432    	5.1718827e-03
0.000255894    	5.2723892e-03
0.000256356    	5.3599193e-03
0.000256817    	5.4340532e-03
0.000257279    	5.4932365e-03
0.000257741    	5.5357947e-03
0.000258204    	5.5618114e-03
0.000258667    	5.5694177e-03
0.00025913     	5.5606640e-03
0.000259594    	5.5270958e-03
0.000260058    	5.4759076e-03
0.000260522    	5.4037433e-03
0.000260987    	5.3132763e-03
0.000261452    	5.2087547e-03
0.000261917    	5.0904994e-03
0.000262382    	4.9617594e-03
0.000262848    	4.8240655e-03
0.000263313    	4.6792061e-03
0.000263778    	4.5280338e-03
0.000264244    	4.3719988e-03
0.000264709    	4.2142457e-03
0.000265173    	4.0561201e-03
0.000265636    	3.9009495e-03
0.000266098    	3.7469354e-03
0.00026656     	3.5977154e-03
0.000267023    	3.4521293e-03
0.000267487    	3.3094142e-03
0.000267952    	3.1742263e-03
0.000268416    	3.0441259e-03
0.000268881    	2.9212834e-03
0.000269346    	2.8048121e-03
0.000269811    	2.6934414e-03
0.000270277    	2.5888171e-03
0.000270743    	2.4903866e-03
0.000271209    	2.3978237e-03
0.000271676    	2.3126050e-03
0.000272143    	2.2317855e-03
0.000272611    	2.1566163e-03
0.000273079    	2.0841416e-03
0.000273548    	2.0156492e-03
0.000274016    	1.9459026e-03
0.000274485    	1.8778350e-03
0.000274955    	1.8079793e-03
0.000275424    	1.7354171e-03
0.000275894    	1.6622394e-03
0.000276364    	1.5814996e-03
0.000276834    	1.4981321e-03
0.000277304    	1.4084654e-03
0.000277774    	1.3133418e-03
0.000278243    	1.2122513e-03
0.000278713    	1.1036823e-03
0.000279182    	9.9088656e-04
0.000279651    	8.7164726e-04
0.00028012     	7.4858612e-04
0.000280589    	6.1744097e-04
0.000281057    	4.8491730e-04
0.000281525    	3.4767413e-04
0.000281993    	2.0201449e-04
0.00028246     	5.6387497e-05
0.000282926    	-9.2537830e-05
0.000283392    	-2.4754730e-04
0.000283858    	-4.0365250e-04
0.000284323    	-5.6418481e-04
0.000284788    	-7.2402200e-04
0.000285253    	-8.8794073e-04
0.000285717    	-1.0509606e-03
0.000286181    	-1.2144456e-03
0.000286645    	-1.3768150e-03
0.000287109    	-1.5378871e-03
0.000287573    	-1.6973265e-03
0.000288037    	-1.8541478e-03
0.000288501    	-2.0089801e-03
0.000288965    	-2.1552695e-03
0.00028943     	-2.2989771e-03
0.000289895    	-2.4354257e-03
0.000290361    	-2.5656717e-03
0.000290827    	-2.6911362e-03
0.000291293    	-2.8087202e-03
0.00029176     	-2.9182388e-03
0.000292227    	-3.0221940e-03
0.000292694    	-3.1180155e-03
0.000293161    	-3.2068481e-03
0.000293629    	-3.2927186e-03
0.000294096    	-3.3711589e-03
0.000294563    	-3.4435903e-03
0.00029503     	-3.5136825e-03
0.000295497    	-3.5747423e-03
0.000295963    	-3.6349309e-03
0.00029643     	-3.6886024e-03
0.000296896    	-3.7372072e-03
0.000297362    	-3.7829978e-03
0.000297828    	-3.8213084e-03
0.000298293    	-3.8566408e-03
0.000298759    	-3.8846754e-03
0.000299224    	-3.9086700e-03
0.00029969     	-3.9239403e-03
0.000300155    	-3.9353040e-03
0.000300621    	-3.9390267e-03
0.000301087    	-3.9345562e-03
0.000301553    	-3.9278931e-03
0.00030202     	-3.9084647e-03
0.000302487    	-3.8893935e-03
0.000302954    	-3.8611024e-03
0.000303422    	-3.8275210e-03
0.00030389     	-3.7927755e-03
0.000304359    	-3.7479491e-03
0.000304828    	-3.7058365e-03
0.000305297    	-3.6536922e-03
0.000305767    	-3.6030277e-03
0.000306235    	-3.5451862e-03
0.000306701    	-3.4862842e-03
0.000307165    	-3.4215990e-03
0.000307625    	-3.3540365e-03
0.000308082    	-3.2822781e-03
0.000308536    	-3.2081491e-03
0.000308988    	-3.1298875e-03
0.00030944     	-3.0506151e-03
0.000309893    	-2.9686451e-03
0.000310347    	-2.8874333e-03
0.000310802    	-2.8063233e-03
0.000311258    	-2.7314719e-03
0.000311717    	-2.6583907e-03
0.000312176    	-2.5942325e-03
0.000312637    	-2.5356078e-03
0.000313099    	-2.4862397e-03
0.000313563    	-2.4445471e-03
0.000314028    	-2.4126848e-03
0.000314495    	-2.3903838e-03
0.000314963    	-2.3766403e-03
0.000315432    	-2.3750456e-03
0.000315901    	-2.3810911e-03
0.000316372    	-2.3988469e-03
0.000316843    	-2.4214407e-03
0.000317315    	-2.4533574e-03
0.000317787    	-2.4882698e-03
0.000318258    	-2.5266123e-03
0.00031873     	-2.5658706e-03
0.000319201    	-2.6047947e-03
0.000319672    	-2.6417609e-03
0.000320143    	-2.6768382e-03
0.000320612    	-2.7053627e-03
0.000321082    	-2.7328045e-03
0.00032155     	-2.7503059e-03
0.000322017    	-2.7680189e-03
0.000322484    	-2.7757223e-03
0.000322949    	-2.7825320e-03
0.000323412    	-2.7826525e-03
0.000323875    	-2.7814706e-03
0.000324336    	-2.7773445e-03
0.000324797    	-2.7729547e-03
0.000325257    	-2.7701721e-03
0.000325718    	-2.7674819e-03
0.00032618     	-2.7707465e-03
0.000326643    	-2.7766318e-03
0.000327108    	-2.7887845e-03
0.000327575    	-2.8063511e-03
0.000328043    	-2.8314163e-03
0.000328513    	-2.8625810e-03
0.000328985    	-2.9009988e-03
0.000329457    	-2.9468824e-03
0.000329931    	-2.9987758e-03
0.000330404    	-3.0569710e-03
0.000330878    	-3.1217310e-03
0.000331352    	-3.1889619e-03
0.000331825    	-3.2610500e-03
0.000332299    	-3.3331489e-03
0.000332772    	-3.4076790e-03
0.000333246    	-3.4809179e-03
0.00033372     	-3.5531880e-03
0.000334193    	-3.6218243e-03
0.000334666    	-3.6869797e-03
0.00033514     	-3.7473183e-03
0.000335613    	-3.8003620e-03
0.000336086    	-3.8488689e-03
0.000336559    	-3.8865340e-03
0.000337033    	-3.9209328e-03
0.000337506    	-3.9425761e-03
0.000337979    	-3.9618212e-03
0.000338453    	-3.9674557e-03
0.000338926    	-3.9733995e-03
0.0003394      	-3.9657892e-03
0.000339873    	-3.9605036e-03
0.000340347    	-3.9456298e-03
0.000340822    	-3.9334627e-03
0.000341297    	-3.9165436e-03
0.000341773    	-3.9034791e-03
0.000342249    	-3.8893355e-03
0.000342726    	-3.8796795e-03
0.000343204    	-3.8719569e-03
0.000343682    	-3.8681106e-03
0.000344161    	-3.8680009e-03
0.000344641    	-3.8708438e-03
0.000345121    	-3.8786059e-03
0.000345602    	-3.8884099e-03
0.000346084    	-3.9031789e-03
0.000346566    	-3.9180320e-03
0.000347049    	-3.9385726e-03
0.000347532    	-3.9572028e-03
0.000348015    	-3.9797337e-03
0.000348499    	-4.0011621e-03
0.000348983    	-4.0243912e-03
0.000349467    	-4.0473562e-03
0.000349951    	-4.0701879e-03
0.000350436    	-4.0945184e-03
0.000350921    	-4.1159972e-03
0.000351405    	-4.1414351e-03
0.00035189     	-4.1627335e-03
0.000352374    	-4.1883837e-03
0.000352858    	-4.2108287e-03
0.000353341    	-4.2364941e-03
0.000353824    	-4.2607485e-03
0.000354307    	-4.2862730e-03
0.000354789    	-4.3116370e-03
0.00035527     	-4.3359851e-03
0.000355752    	-4.3595101e-03
0.000356233    	-4.3797138e-03
0.000356713    	-4.3966111e-03
0.000357193    	-4.4062894e-03
0.000357673    	-4.4078390e-03
0.000358152    	-4.3970963e-03
0.000358631    	-4.3696460e-03
0.000359109    	-4.3205660e-03
0.000359586    	-4.2435031e-03
0.000360062    	-4.1332868e-03
0.000360537    	-3.9882016e-03
0.000361012    	-3.8075303e-03
0.000361485    	-3.5957901e-03
0.000361958    	-3.3562389e-03
0.000362431    	-3.0920499e-03
0.000362902    	-2.8068090e-03
0.000363373    	-2.5016878e-03
0.000363844    	-2.1770336e-03
0.000364314    	-1.8332406e-03
0.000364783    	-1.4688343e-03
0.000365253    	-1.0838233e-03
0.000365722    	-6.7970588e-04
0.000366192    	-2.5685117e-04
0.000366662    	1.8385526e-04
0.000367132    	6.4099062e-04
0.000367602    	1.1114052e-03
0.000368073    	1.5938832e-03
0.000368544    	2.0850691e-03
0.000369016    	2.5838109e-03
0.000369488    	3.0876065e-03
0.000369961    	3.5931180e-03
0.000370435    	4.0946390e-03
0.000370909    	4.5847519e-03
0.000371384    	5.0595617e-03
0.00037186     	5.5143721e-03
0.000372336    	5.9457760e-03
0.000372813    	6.3519027e-03
0.00037329     	6.7322444e-03
0.000373768    	7.0838761e-03
0.000374245    	7.4041961e-03
0.000374722    	7.6925034e-03
0.000375199    	7.9479126e-03
0.000375677    	8.1699329e-03
0.000376154    	8.3586040e-03
0.000376632    	8.5180781e-03
0.00037711     	8.6490395e-03
0.000377588    	8.7516852e-03
0.000378066    	8.8259771e-03
0.000378545    	8.8749469e-03
0.000379024    	8.9006283e-03
0.000379504    	8.9061020e-03
0.000379984    	8.8917020e-03
0.000380464    	8.8610053e-03
0.000380945    	8.8155983e-03
0.000381424    	8.7556388e-03
0.000381902    	8.6852446e-03
0.000382379    	8.6048084e-03
0.000382856    	8.5136941e-03
0.000383333    	8.4127686e-03
0.00038381     	8.3036446e-03
0.000384287    	8.1843766e-03
0.000384764    	8.0555165e-03
0.00038524     	7.9180893e-03
0.000385716    	7.7724101e-03
0.000386192    	7.6178148e-03
0.000386668    	7.4545975e-03
0.000387145    	7.2848467e-03
0.000387623    	7.1094305e-03
0.0003881      	6.9287106e-03
0.000388579    	6.7448908e-03
0.000389058    	6.5604087e-03
0.000389537    	6.3761112e-03
0.000390016    	6.1933590e-03
0.000390496    	6.0131360e-03
0.000390976    	5.8373118e-03
0.000391455    	5.6665694e-03
0.000391934    	5.5015393e-03
0.000392412    	5.3420132e-03
0.000392891    	5.1899801e-03
0.000393369    	5.0432243e-03
0.000393848    	4.9043524e-03
0.000394326    	4.7704780e-03
0.000394803    	4.6432444e-03
0.000395281    	4.5209279e-03
0.000395758    	4.4051440e-03
0.000396234    	4.2928798e-03
0.00039671     	4.1861545e-03
0.000397186    	4.0831570e-03
0.000397661    	3.9843888e-03
0.000398135    	3.8899110e-03
0.00039861     	3.7990372e-03
0.000399083    	3.7117179e-03
0.000399557    	3.6287147e-03
0.00040003     	3.5496304e-03
0.000400503    	3.4735190e-03
0.000400976    	3.3986938e-03
0.000401449    	3.3271944e-03
0.000401923    	3.2566780e-03
0.000402396    	3.1849977e-03
0.00040287     	3.1149998e-03
0.000403344    	3.0430930e-03
0.000403818    	2.9707406e-03
0.000404293    	2.8969273e-03
0.000404768    	2.8211980e-03
0.000405244    	2.7431646e-03
0.000405721    	2.6622557e-03
0.000406198    	2.5796887e-03
0.000406676    	2.4937164e-03
0.000407154    	2.4053061e-03
0.000407633    	2.3134708e-03
0.000408113    	2.2206515e-03
0.000408594    	2.1252530e-03
0.000409075    	2.0309388e-03
0.000409557    	1.9349733e-03
0.00041004     	1.8385944e-03
0.000410523    	1.7448619e-03
0.000411007    	1.6512053e-03
0.000411492    	1.5609524e-03
0.000411978    	1.4733322e-03
0.000412465    	1.3908874e-03
0.000412952    	1.3102795e-03
0.00041344     	1.2369558e-03
0.000413928    	1.1653412e-03
0.000414415    	1.0989108e-03
0.000414902    	1.0345269e-03
0.000415388    	9.7360968e-04
0.000415873    	9.1365489e-04
0.000416357    	8.5584759e-04
0.00041684     	8.0064795e-04
0.000417323    	7.4550595e-04
0.000417806    	6.9172097e-04
0.000418287    	6.4025913e-04
0.000418769    	5.8883384e-04
0.000419249    	5.3914643e-04
0.000419729    	4.9244066e-04
0.000420209    	4.4766549e-04
0.000420688    	4.1030861e-04
0.000421167    	3.7266843e-04
0.000421646    	3.4288006e-04
0.000422124    	3.1467008e-04
0.000422602    	2.8793152e-04
0.000423079    	2.6913516e-04
0.000423557    	2.4568791e-04
0.000424035    	2.2666090e-04
0.000424513    	2.0822637e-04
0.000424991    	1.8537434e-04
0.000425468    	1.6532406e-04
0.000425945    	1.3894829e-04
0.000426422    	1.0809201e-04
0.000426898    	7.7927462e-05
0.000427373    	3.5444808e-05
0.000427848    	-9.1145466e-06
0.000428323    	-6.1885592e-05
0.000428798    	-1.2481012e-04
0.000429273    	-1.9397997e-04
0.000429749    	-2.7073333e-04
0.000430224    	-3.5664206e-04
0.0004307      	-4.4911180e-04
0.000431176    	-5.4994584e-04
0.000431653    	-6.5639860e-04
0.00043213     	-7.7050369e-04
0.000432608    	-8.8620943e-04
0.000433086    	-1.0085179e-03
0.000433565    	-1.1304336e-03
0.000434043    	-1.2546523e-03
0.00043452     	-1.3804180e-03
0.000434997    	-1.5029027e-03
0.000435474    	-1.6307322e-03
0.000435952    	-1.7494593e-03
0.00043643     	-1.8731710e-03
0.000436908    	-1.9899737e-03
0.000437388    	-2.1045784e-03
0.00043787     	-2.2210324e-03
0.000438353    	-2.3277221e-03
0.000438837    	-2.4336831e-03
0.000439322    	-2.5351186e-03
0.000439807    	-2.6313155e-03
0.000440292    	-2.7248989e-03
0.000440778    	-2.8099004e-03
0.000441265    	-2.8907919e-03
0.000441752    	-2.9713269e-03
0.00044224     	-3.0385094e-03
0.000442729    	-3.1130409e-03
0.000443219    	-3.1730994e-03
0.000443711    	-3.2363986e-03
0.000444203    	-3.2905933e-03
0.000444696    	-3.3500175e-03
0.000445191    	-3.3993354e-03
0.000445686    	-3.4509350e-03
0.000446181    	-3.4998335e-03
0.000446676    	-3.5463318e-03
0.000447172    	-3.5902502e-03
0.000447668    	-3.6407399e-03
0.000448163    	-3.6790106e-03
0.000448658    	-3.7277749e-03
0.000449152    	-3.7658639e-03
0.000449645    	-3.8150772e-03
0.000450137    	-3.8539859e-03
0.000450629    	-3.8974871e-03
0.000451121    	-3.9418053e-03
0.000451612    	-3.9839159e-03
0.000452104    	-4.0309334e-03
0.000452596    	-4.0740783e-03
0.000453088    	-4.1229722e-03
0.000453579    	-4.1690324e-03
0.000454071    	-4.2197617e-03
0.000454562    	-4.2713731e-03
0.000455052    	-4.3264479e-03
0.000455543    	-4.3836740e-03
0.000456033    	-4.4431397e-03
0.000456522    	-4.5059820e-03
0.000457012    	-4.5695621e-03
0.000457501    	-4.6380234e-03
0.00045799     	-4.7054464e-03