# Region type : patch wOutlet
# Faces  :     464
# Area   :     7.8470564e-05
# Time         	average(U)	average(p)	average(T)
0              	(0.0000000e+00 0.0000000e+00 0.0000000e+00)	1.0000000e+05	2.9300000e+02
4.57971e-07    	(1.5643572e-08 3.8336865e-04 -7.1161252e-09)	1.0000084e+05	2.9400000e+02
8.33602e-07    	(3.0077462e-08 4.0029815e-04 -4.2107806e-09)	1.0000091e+05	2.9399996e+02
1.20923e-06    	(4.4968276e-08 3.8397559e-04 1.5706522e-09)	1.0000091e+05	2.9399994e+02
1.58486e-06    	(4.3541172e-08 3.6450434e-04 2.7072990e-09)	1.0000090e+05	2.9399993e+02
1.96049e-06    	(3.7055153e-08 3.4909267e-04 4.4855234e-09)	1.0000089e+05	2.9399992e+02
2.33612e-06    	(3.5061932e-08 3.4090509e-04 6.9071875e-09)	1.0000088e+05	2.9399991e+02
2.71175e-06    	(2.8467241e-08 3.3943472e-04 1.0657902e-08)	1.0000087e+05	2.9399991e+02
3.08738e-06    	(2.0079565e-08 3.4298826e-04 1.5514220e-08)	1.0000087e+05	2.9399991e+02
3.46301e-06    	(1.4777055e-08 3.4972046e-04 1.7743505e-08)	1.0000087e+05	2.9399991e+02
3.83864e-06    	(1.0471610e-08 3.5774024e-04 1.9153050e-08)	1.0000087e+05	2.9399991e+02
4.21427e-06    	(9.4262530e-09 3.6550338e-04 2.0141897e-08)	1.0000086e+05	2.9399991e+02
4.5899e-06     	(1.1380797e-08 3.7266759e-04 2.0519460e-08)	1.0000086e+05	2.9399991e+02
4.96553e-06    	(1.4594696e-08 3.7945450e-04 2.0769062e-08)	1.0000086e+05	2.9399991e+02
5.34117e-06    	(1.7525703e-08 3.8584781e-04 2.1245110e-08)	1.0000086e+05	2.9399991e+02
5.7168e-06     	(1.9253527e-08 3.9189654e-04 2.1318755e-08)	1.0000086e+05	2.9399990e+02
6.09243e-06    	(1.9092395e-08 3.9776427e-04 2.0833636e-08)	1.0000086e+05	2.9399990e+02
6.46806e-06    	(1.6272633e-08 4.0355283e-04 1.9983759e-08)	1.0000085e+05	2.9399990e+02
6.84369e-06    	(1.1215135e-08 4.0935727e-04 1.8874588e-08)	1.0000085e+05	2.9399990e+02
7.21932e-06    	(3.3042614e-09 4.1519777e-04 1.7384769e-08)	1.0000085e+05	2.9399990e+02
7.59495e-06    	(-6.8003575e-09 4.2107009e-04 1.5785037e-08)	1.0000085e+05	2.9399990e+02
7.97058e-06    	(-1.9382443e-08 4.2694799e-04 1.3484680e-08)	1.0000085e+05	2.9399990e+02
8.34621e-06    	(-3.4318516e-08 4.3282214e-04 1.0915667e-08)	1.0000084e+05	2.9399989e+02
8.72184e-06    	(-5.1028209e-08 4.3872187e-04 7.7340937e-09)	1.0000084e+05	2.9399989e+02
9.09747e-06    	(-6.8983025e-08 4.4466654e-04 3.9975055e-09)	1.0000084e+05	2.9399989e+02
9.4731e-06     	(-8.6672373e-08 4.5065865e-04 9.8728213e-10)	1.0000084e+05	2.9399989e+02
9.84873e-06    	(-1.0502248e-07 4.5669369e-04 -1.7907046e-09)	1.0000084e+05	2.9399989e+02
1.02244e-05    	(-1.2415257e-07 4.6276705e-04 -4.4446019e-09)	1.0000083e+05	2.9399989e+02
1.06e-05       	(-1.4376725e-07 4.6888004e-04 -6.4071468e-09)	1.0000083e+05	2.9399988e+02
1.09756e-05    	(-1.6363261e-07 4.7502189e-04 -7.5596619e-09)	1.0000083e+05	2.9399988e+02
1.13512e-05    	(-1.8314414e-07 4.8117171e-04 -8.0950248e-09)	1.0000083e+05	2.9399988e+02
1.17269e-05    	(-2.0164134e-07 4.8731227e-04 -8.6102916e-09)	1.0000083e+05	2.9399988e+02
1.21025e-05    	(-2.1920612e-07 4.9343445e-04 -8.6936831e-09)	1.0000082e+05	2.9399988e+02
1.24781e-05    	(-2.3604407e-07 4.9953333e-04 -7.6714383e-09)	1.0000082e+05	2.9399988e+02
1.28538e-05    	(-2.5171233e-07 5.0560749e-04 -6.1194026e-09)	1.0000082e+05	2.9399987e+02
1.32294e-05    	(-2.6633454e-07 5.1165549e-04 -4.5779634e-09)	1.0000082e+05	2.9399987e+02
1.3605e-05     	(-2.7841283e-07 5.1767844e-04 -2.4435442e-09)	1.0000081e+05	2.9399987e+02
1.39807e-05    	(-2.9341024e-07 5.2362496e-04 -1.1452364e-09)	1.0000081e+05	2.9399987e+02
1.43563e-05    	(-3.0830511e-07 5.2953074e-04 -1.5006794e-10)	1.0000081e+05	2.9399987e+02
1.47319e-05    	(-3.2280954e-07 5.3540686e-04 5.9462744e-10)	1.0000081e+05	2.9399987e+02
1.51076e-05    	(-3.3731581e-07 5.4126197e-04 4.1845200e-10)	1.0000081e+05	2.9399986e+02
1.54832e-05    	(-3.5185756e-07 5.4709578e-04 -2.4776788e-11)	1.0000080e+05	2.9399986e+02
1.58588e-05    	(-3.6618631e-07 5.5290709e-04 -4.4103728e-10)	1.0000080e+05	2.9399986e+02
1.62344e-05    	(-3.8020964e-07 5.5869442e-04 -9.9299314e-10)	1.0000080e+05	2.9399986e+02
1.66101e-05    	(-3.9384368e-07 5.6445818e-04 -1.8042312e-09)	1.0000080e+05	2.9399986e+02
1.69857e-05    	(-4.0696050e-07 5.7020136e-04 -2.7882678e-09)	1.0000079e+05	2.9399985e+02
1.73613e-05    	(-4.1939690e-07 5.7592788e-04 -3.7640372e-09)	1.0000079e+05	2.9399985e+02
1.7737e-05     	(-4.3100734e-07 5.8164210e-04 -4.7682233e-09)	1.0000079e+05	2.9399985e+02
1.81126e-05    	(-4.4182568e-07 5.8734672e-04 -5.8110543e-09)	1.0000079e+05	2.9399985e+02
1.84882e-05    	(-4.5214631e-07 5.9304136e-04 -6.9798720e-09)	1.0000079e+05	2.9399985e+02
1.88639e-05    	(-4.6208285e-07 5.9872628e-04 -8.2725026e-09)	1.0000078e+05	2.9399984e+02
1.92395e-05    	(-4.7160462e-07 6.0439912e-04 -9.7114100e-09)	1.0000078e+05	2.9399984e+02
1.96151e-05    	(-4.8051482e-07 6.1006020e-04 -1.1039958e-08)	1.0000078e+05	2.9399984e+02
1.99907e-05    	(-4.8881850e-07 6.1571072e-04 -1.2301488e-08)	1.0000078e+05	2.9399984e+02
2.03664e-05    	(-4.9735303e-07 6.2135024e-04 -1.5506624e-08)	1.0000077e+05	2.9399984e+02
2.0742e-05     	(-5.0535444e-07 6.2697694e-04 -1.9303472e-08)	1.0000077e+05	2.9399983e+02
2.11176e-05    	(-5.0808766e-07 6.3258715e-04 -1.7974129e-08)	1.0000077e+05	2.9399983e+02
2.14933e-05    	(-5.0982180e-07 6.3818069e-04 -1.6564366e-08)	1.0000077e+05	2.9399983e+02
2.18689e-05    	(-5.1496522e-07 6.4375993e-04 -1.8910394e-08)	1.0000076e+05	2.9399983e+02
2.22445e-05    	(-5.2307180e-07 6.4932458e-04 -2.2231169e-08)	1.0000076e+05	2.9399983e+02
2.26202e-05    	(-5.2960959e-07 6.5487723e-04 -2.3674399e-08)	1.0000076e+05	2.9399982e+02
2.29958e-05    	(-5.3353447e-07 6.6042419e-04 -2.3204423e-08)	1.0000076e+05	2.9399982e+02
2.33714e-05    	(-5.3675024e-07 6.6596763e-04 -2.1755076e-08)	1.0000075e+05	2.9399982e+02
2.3747e-05     	(-5.4051245e-07 6.7150920e-04 -2.0338682e-08)	1.0000075e+05	2.9399982e+02
2.41227e-05    	(-5.4478810e-07 6.7705060e-04 -1.9016480e-08)	1.0000075e+05	2.9399982e+02
2.44983e-05    	(-5.4864641e-07 6.8259082e-04 -1.7256601e-08)	1.0000075e+05	2.9399981e+02
2.48739e-05    	(-5.5159153e-07 6.8812719e-04 -1.4651670e-08)	1.0000074e+05	2.9399981e+02
2.52496e-05    	(-5.5511885e-07 6.9365814e-04 -1.2406700e-08)	1.0000074e+05	2.9399981e+02
2.56252e-05    	(-5.6158376e-07 6.9918157e-04 -1.2495565e-08)	1.0000074e+05	2.9399981e+02
2.60008e-05    	(-5.6947227e-07 7.0469460e-04 -1.3815573e-08)	1.0000074e+05	2.9399981e+02
2.63765e-05    	(-5.7381547e-07 7.1019554e-04 -1.2822571e-08)	1.0000073e+05	2.9399980e+02
2.67521e-05    	(-5.7414257e-07 7.1568980e-04 -1.0045486e-08)	1.0000073e+05	2.9399980e+02
2.71277e-05    	(-5.7458486e-07 7.2118927e-04 -9.2034975e-09)	1.0000073e+05	2.9399980e+02
2.75034e-05    	(-5.7648142e-07 7.2670198e-04 -1.0505824e-08)	1.0000073e+05	2.9399980e+02
2.7879e-05     	(-5.7836174e-07 7.3222707e-04 -1.2595435e-08)	1.0000073e+05	2.9399980e+02
2.82546e-05    	(-5.8038467e-07 7.3776015e-04 -1.5767579e-08)	1.0000072e+05	2.9399979e+02
2.86302e-05    	(-5.8253885e-07 7.4329694e-04 -2.1784912e-08)	1.0000072e+05	2.9399979e+02
2.90059e-05    	(-5.8376037e-07 7.4883352e-04 -2.7802668e-08)	1.0000072e+05	2.9399979e+02
2.93815e-05    	(-5.8427076e-07 7.5437554e-04 -3.2707462e-08)	1.0000072e+05	2.9399979e+02
2.97571e-05    	(-5.8397183e-07 7.5992576e-04 -3.6753083e-08)	1.0000071e+05	2.9399979e+02
3.01328e-05    	(-5.8260467e-07 7.6548367e-04 -4.0771508e-08)	1.0000071e+05	2.9399978e+02
3.05084e-05    	(-5.8042768e-07 7.7104783e-04 -4.5261646e-08)	1.0000071e+05	2.9399978e+02
3.0884e-05     	(-5.7836134e-07 7.7661739e-04 -4.9927673e-08)	1.0000071e+05	2.9399978e+02
3.12597e-05    	(-5.7609071e-07 7.8219073e-04 -5.4524955e-08)	1.0000070e+05	2.9399978e+02
3.16353e-05    	(-5.7296138e-07 7.8776688e-04 -5.9367435e-08)	1.0000070e+05	2.9399978e+02
3.20109e-05    	(-5.6940069e-07 7.9334272e-04 -6.4178963e-08)	1.0000070e+05	2.9399978e+02
3.23865e-05    	(-5.6583617e-07 7.9891436e-04 -6.8653618e-08)	1.0000070e+05	2.9399977e+02
3.27622e-05    	(-5.6214313e-07 8.0447813e-04 -7.3216703e-08)	1.0000069e+05	2.9399977e+02
3.31378e-05    	(-5.5809120e-07 8.1003111e-04 -7.7706098e-08)	1.0000069e+05	2.9399977e+02
3.35134e-05    	(-5.5408170e-07 8.1557075e-04 -8.2134089e-08)	1.0000069e+05	2.9399977e+02
3.38891e-05    	(-5.5005096e-07 8.2109235e-04 -8.5985099e-08)	1.0000069e+05	2.9399977e+02
3.42647e-05    	(-5.4595133e-07 8.2659069e-04 -8.8575189e-08)	1.0000069e+05	2.9399976e+02
3.46403e-05    	(-5.4120247e-07 8.3205925e-04 -8.9932646e-08)	1.0000068e+05	2.9399976e+02
3.5016e-05     	(-5.3598777e-07 8.3749402e-04 -9.1527212e-08)	1.0000068e+05	2.9399976e+02
3.53916e-05    	(-5.3082510e-07 8.4289136e-04 -9.3406475e-08)	1.0000068e+05	2.9399976e+02
3.57672e-05    	(-5.2571730e-07 8.4824197e-04 -9.5294983e-08)	1.0000068e+05	2.9399976e+02
3.61428e-05    	(-5.2033144e-07 8.5353028e-04 -9.7154688e-08)	1.0000067e+05	2.9399975e+02
3.65185e-05    	(-5.1461680e-07 8.5873597e-04 -9.8991431e-08)	1.0000067e+05	2.9399975e+02
3.68941e-05    	(-5.0867543e-07 8.6383514e-04 -1.0097967e-07)	1.0000067e+05	2.9399975e+02
3.72697e-05    	(-5.0263042e-07 8.6880125e-04 -1.0318917e-07)	1.0000067e+05	2.9399975e+02
3.76454e-05    	(-4.9649904e-07 8.7360492e-04 -1.0559250e-07)	1.0000066e+05	2.9399975e+02
3.8021e-05     	(-4.9038252e-07 8.7821677e-04 -1.0824490e-07)	1.0000066e+05	2.9399974e+02
3.83966e-05    	(-4.8452093e-07 8.8260877e-04 -1.1102302e-07)	1.0000066e+05	2.9399974e+02
3.87723e-05    	(-4.7914064e-07 8.8675749e-04 -1.1374388e-07)	1.0000066e+05	2.9399974e+02
3.91479e-05    	(-4.7405066e-07 8.9064055e-04 -1.1595304e-07)	1.0000065e+05	2.9399974e+02
3.95235e-05    	(-4.7005516e-07 8.9424659e-04 -1.1619587e-07)	1.0000065e+05	2.9399973e+02
3.98992e-05    	(-4.6534725e-07 8.9756054e-04 -1.1574935e-07)	1.0000065e+05	2.9399973e+02
4.02748e-05    	(-4.5884132e-07 9.0056611e-04 -1.1958014e-07)	1.0000064e+05	2.9399973e+02
4.06504e-05    	(-4.5304384e-07 9.0325948e-04 -1.2648196e-07)	1.0000064e+05	2.9399972e+02
4.1026e-05     	(-4.4678068e-07 9.0564157e-04 -1.2866850e-07)	1.0000064e+05	2.9399972e+02
4.14017e-05    	(-4.3962754e-07 9.0771156e-04 -1.2018259e-07)	1.0000063e+05	2.9399972e+02
4.17773e-05    	(-4.3219385e-07 9.0946662e-04 -1.0916145e-07)	1.0000063e+05	2.9399971e+02
4.21529e-05    	(-4.2533066e-07 9.1091662e-04 -1.0958810e-07)	1.0000062e+05	2.9399971e+02
4.25286e-05    	(-4.2001860e-07 9.1207685e-04 -1.1854086e-07)	1.0000062e+05	2.9399970e+02
4.29042e-05    	(-4.1185550e-07 9.1296168e-04 -1.2104745e-07)	1.0000062e+05	2.9399970e+02
4.32798e-05    	(-4.0400148e-07 9.1359085e-04 -1.1077184e-07)	1.0000061e+05	2.9399970e+02
4.36555e-05    	(-3.9715385e-07 9.1398308e-04 -1.0264197e-07)	1.0000061e+05	2.9399969e+02
4.40311e-05    	(-3.9526947e-07 9.1415853e-04 -1.0345736e-07)	1.0000060e+05	2.9399969e+02
4.44067e-05    	(-3.9723042e-07 9.1414155e-04 -1.0417176e-07)	1.0000060e+05	2.9399968e+02
4.47823e-05    	(-3.9283687e-07 9.1395655e-04 -9.9833726e-08)	1.0000059e+05	2.9399968e+02
4.5158e-05     	(-3.8423116e-07 9.1362653e-04 -9.2774964e-08)	1.0000059e+05	2.9399968e+02
4.55336e-05    	(-3.7835442e-07 9.1317543e-04 -8.9279195e-08)	1.0000058e+05	2.9399967e+02
4.59092e-05    	(-3.7690928e-07 9.1262683e-04 -8.7660597e-08)	1.0000058e+05	2.9399967e+02
4.62849e-05    	(-3.7446030e-07 9.1200137e-04 -8.3551314e-08)	1.0000057e+05	2.9399966e+02
4.66605e-05    	(-3.6824931e-07 9.1131652e-04 -7.7578804e-08)	1.0000057e+05	2.9399966e+02
4.70361e-05    	(-3.6166863e-07 9.1058724e-04 -7.2299284e-08)	1.0000056e+05	2.9399965e+02
4.74118e-05    	(-3.5755779e-07 9.0982681e-04 -6.8531079e-08)	1.0000056e+05	2.9399965e+02
4.77874e-05    	(-3.5439928e-07 9.0904572e-04 -6.4828899e-08)	1.0000055e+05	2.9399964e+02
4.8163e-05     	(-3.5018445e-07 9.0825215e-04 -6.0809737e-08)	1.0000055e+05	2.9399964e+02
4.85386e-05    	(-3.4527495e-07 9.0745298e-04 -5.6974047e-08)	1.0000054e+05	2.9399964e+02
4.89143e-05    	(-3.4129446e-07 9.0665367e-04 -5.3720610e-08)	1.0000054e+05	2.9399963e+02
4.92899e-05    	(-3.3807179e-07 9.0585825e-04 -5.0997347e-08)	1.0000053e+05	2.9399963e+02
4.96655e-05    	(-3.3473659e-07 9.0506880e-04 -4.8407285e-08)	1.0000053e+05	2.9399962e+02
5.00412e-05    	(-3.3135251e-07 9.0428862e-04 -4.6019082e-08)	1.0000052e+05	2.9399962e+02
5.04168e-05    	(-3.2891037e-07 9.0352244e-04 -4.3781567e-08)	1.0000052e+05	2.9399961e+02
5.07924e-05    	(-3.2738738e-07 9.0277311e-04 -4.2251439e-08)	1.0000051e+05	2.9399961e+02
5.11681e-05    	(-3.2588785e-07 9.0204863e-04 -3.8568237e-08)	1.0000051e+05	2.9399961e+02
5.15437e-05    	(-3.2255514e-07 9.0134292e-04 -3.3936942e-08)	1.0000050e+05	2.9399960e+02
5.19193e-05    	(-3.1783649e-07 9.0066063e-04 -3.0163480e-08)	1.0000050e+05	2.9399960e+02
5.2295e-05     	(-3.1343304e-07 8.9999893e-04 -2.7688102e-08)	1.0000049e+05	2.9399959e+02
5.26706e-05    	(-3.0939874e-07 8.9936060e-04 -2.4752754e-08)	1.0000049e+05	2.9399959e+02
5.30462e-05    	(-3.0586898e-07 8.9874768e-04 -2.1625719e-08)	1.0000048e+05	2.9399959e+02
5.34218e-05    	(-3.0307468e-07 8.9816155e-04 -1.8520988e-08)	1.0000048e+05	2.9399958e+02
5.37975e-05    	(-3.0126402e-07 8.9760333e-04 -1.5664313e-08)	1.0000048e+05	2.9399958e+02
5.41731e-05    	(-2.9984286e-07 8.9707601e-04 -1.2729375e-08)	1.0000047e+05	2.9399957e+02
5.45487e-05    	(-2.9729731e-07 8.9658451e-04 -9.4183464e-09)	1.0000047e+05	2.9399957e+02
5.49244e-05    	(-2.9424259e-07 8.9613024e-04 -5.5004297e-09)	1.0000046e+05	2.9399957e+02
5.53e-05       	(-2.9327221e-07 8.9570783e-04 -1.6123145e-09)	1.0000046e+05	2.9399956e+02
5.56756e-05    	(-2.9248896e-07 8.9531488e-04 1.9642333e-09)	1.0000045e+05	2.9399956e+02
5.60513e-05    	(-2.9219989e-07 8.9495059e-04 5.6136477e-09)	1.0000045e+05	2.9399956e+02
5.64269e-05    	(-2.9220014e-07 8.9461596e-04 9.2868658e-09)	1.0000045e+05	2.9399955e+02
5.68025e-05    	(-2.9273830e-07 8.9431366e-04 1.3048715e-08)	1.0000044e+05	2.9399955e+02
5.71781e-05    	(-2.9388648e-07 8.9404575e-04 1.6824163e-08)	1.0000044e+05	2.9399955e+02
5.75538e-05    	(-2.9569238e-07 8.9381236e-04 2.0855162e-08)	1.0000043e+05	2.9399954e+02
5.79294e-05    	(-2.9782002e-07 8.9361396e-04 2.5274961e-08)	1.0000043e+05	2.9399954e+02
5.8305e-05     	(-2.9952775e-07 8.9345015e-04 3.0421929e-08)	1.0000043e+05	2.9399954e+02
5.86807e-05    	(-3.0029394e-07 8.9331695e-04 3.6529132e-08)	1.0000042e+05	2.9399953e+02
5.90563e-05    	(-3.0085264e-07 8.9320964e-04 4.3169395e-08)	1.0000042e+05	2.9399953e+02
5.94319e-05    	(-3.0308035e-07 8.9312376e-04 4.9496037e-08)	1.0000041e+05	2.9399953e+02
5.98076e-05    	(-3.0768605e-07 8.9305652e-04 5.5092972e-08)	1.0000041e+05	2.9399952e+02
6.01832e-05    	(-3.1291647e-07 8.9300613e-04 6.1222858e-08)	1.0000041e+05	2.9399952e+02
6.05588e-05    	(-3.1678170e-07 8.9297229e-04 6.8166269e-08)	1.0000040e+05	2.9399952e+02
6.09344e-05    	(-3.1814943e-07 8.9295358e-04 7.5920542e-08)	1.0000040e+05	2.9399951e+02
6.13101e-05    	(-3.1772097e-07 8.9294566e-04 8.2971690e-08)	1.0000040e+05	2.9399951e+02
6.16857e-05    	(-3.1877465e-07 8.9294514e-04 8.8652613e-08)	1.0000039e+05	2.9399951e+02
6.20613e-05    	(-3.2368938e-07 8.9294878e-04 9.4235349e-08)	1.0000039e+05	2.9399950e+02
6.2437e-05     	(-3.3045223e-07 8.9295276e-04 9.9182304e-08)	1.0000039e+05	2.9399950e+02
6.28126e-05    	(-3.3484769e-07 8.9295214e-04 1.0450476e-07)	1.0000038e+05	2.9399950e+02
6.31882e-05    	(-3.3629729e-07 8.9294369e-04 1.1075783e-07)	1.0000038e+05	2.9399949e+02
6.35639e-05    	(-3.3770190e-07 8.9292584e-04 1.1686611e-07)	1.0000038e+05	2.9399949e+02
6.39395e-05    	(-3.4100083e-07 8.9289558e-04 1.2271264e-07)	1.0000037e+05	2.9399949e+02
6.43151e-05    	(-3.4544869e-07 8.9284852e-04 1.2732261e-07)	1.0000037e+05	2.9399949e+02
6.46908e-05    	(-3.4659232e-07 8.9278052e-04 1.3126735e-07)	1.0000037e+05	2.9399948e+02
6.50664e-05    	(-3.4450704e-07 8.9268937e-04 1.3605456e-07)	1.0000036e+05	2.9399948e+02
6.5442e-05     	(-3.4319061e-07 8.9257511e-04 1.4072175e-07)	1.0000036e+05	2.9399948e+02
6.58176e-05    	(-3.4330244e-07 8.9243695e-04 1.4655201e-07)	1.0000036e+05	2.9399947e+02
6.61933e-05    	(-3.4338148e-07 8.9227260e-04 1.5263087e-07)	1.0000035e+05	2.9399947e+02
6.65689e-05    	(-3.4403705e-07 8.9208042e-04 1.5572522e-07)	1.0000035e+05	2.9399947e+02
6.69445e-05    	(-3.4559049e-07 8.9186027e-04 1.5732439e-07)	1.0000035e+05	2.9399947e+02
6.73202e-05    	(-3.4801437e-07 8.9160930e-04 1.6031636e-07)	1.0000034e+05	2.9399946e+02
6.76958e-05    	(-3.4781423e-07 8.9132563e-04 1.6403083e-07)	1.0000034e+05	2.9399946e+02
6.80714e-05    	(-3.4736161e-07 8.9100810e-04 1.6602549e-07)	1.0000034e+05	2.9399946e+02
6.84471e-05    	(-3.5039511e-07 8.9065532e-04 1.6351362e-07)	1.0000033e+05	2.9399945e+02
6.88227e-05    	(-3.5551864e-07 8.9026763e-04 1.6431950e-07)	1.0000033e+05	2.9399945e+02
6.91983e-05    	(-3.5937899e-07 8.8984485e-04 1.6826387e-07)	1.0000033e+05	2.9399945e+02
6.95739e-05    	(-3.5875855e-07 8.8938583e-04 1.7199190e-07)	1.0000032e+05	2.9399945e+02
6.99496e-05    	(-3.6075222e-07 8.8889080e-04 1.6974204e-07)	1.0000032e+05	2.9399944e+02
7.03252e-05    	(-3.6563987e-07 8.8836009e-04 1.6654264e-07)	1.0000032e+05	2.9399944e+02
7.07008e-05    	(-3.7018870e-07 8.8779453e-04 1.7029079e-07)	1.0000031e+05	2.9399944e+02
7.10765e-05    	(-3.6974702e-07 8.8719319e-04 1.7326878e-07)	1.0000031e+05	2.9399943e+02
7.14521e-05    	(-3.6914579e-07 8.8655665e-04 1.7186409e-07)	1.0000031e+05	2.9399943e+02
7.18277e-05    	(-3.7238548e-07 8.8588635e-04 1.6706585e-07)	1.0000030e+05	2.9399943e+02
7.22034e-05    	(-3.7899239e-07 8.8518394e-04 1.6772332e-07)	1.0000030e+05	2.9399943e+02
7.2579e-05     	(-3.8049689e-07 8.8444947e-04 1.7144319e-07)	1.0000030e+05	2.9399942e+02
7.29546e-05    	(-3.7889601e-07 8.8368353e-04 1.7264526e-07)	1.0000029e+05	2.9399942e+02
7.33302e-05    	(-3.8095398e-07 8.8288896e-04 1.6843741e-07)	1.0000029e+05	2.9399942e+02
7.37059e-05    	(-3.8794274e-07 8.8206748e-04 1.6576871e-07)	1.0000029e+05	2.9399941e+02
7.40815e-05    	(-3.9158386e-07 8.8121981e-04 1.6808548e-07)	1.0000028e+05	2.9399941e+02
7.44571e-05    	(-3.8921780e-07 8.8034515e-04 1.6966865e-07)	1.0000028e+05	2.9399941e+02
7.48328e-05    	(-3.8795969e-07 8.7944616e-04 1.6512906e-07)	1.0000028e+05	2.9399941e+02
7.52084e-05    	(-3.9224003e-07 8.7852621e-04 1.5982898e-07)	1.0000027e+05	2.9399940e+02
7.5584e-05     	(-3.9647692e-07 8.7758745e-04 1.5954231e-07)	1.0000027e+05	2.9399940e+02
7.59597e-05    	(-3.9340009e-07 8.7663044e-04 1.6033626e-07)	1.0000027e+05	2.9399940e+02
7.63353e-05    	(-3.9024310e-07 8.7565560e-04 1.5762969e-07)	1.0000026e+05	2.9399940e+02
7.67109e-05    	(-3.9288903e-07 8.7466468e-04 1.5376376e-07)	1.0000026e+05	2.9399939e+02
7.70866e-05    	(-3.9789722e-07 8.7365914e-04 1.5427618e-07)	1.0000026e+05	2.9399939e+02
7.74622e-05    	(-3.9559090e-07 8.7263920e-04 1.5580262e-07)	1.0000025e+05	2.9399939e+02
7.78378e-05    	(-3.8991046e-07 8.7160510e-04 1.5339384e-07)	1.0000025e+05	2.9399938e+02
7.82134e-05    	(-3.8916485e-07 8.7055887e-04 1.4860331e-07)	1.0000025e+05	2.9399938e+02
7.85891e-05    	(-3.9428372e-07 8.6950182e-04 1.4729425e-07)	1.0000025e+05	2.9399938e+02
7.89647e-05    	(-3.9416722e-07 8.6843320e-04 1.4839955e-07)	1.0000024e+05	2.9399938e+02
7.93403e-05    	(-3.8824488e-07 8.6735053e-04 1.4475883e-07)	1.0000024e+05	2.9399937e+02
7.9716e-05     	(-3.8394275e-07 8.6625452e-04 1.3731916e-07)	1.0000024e+05	2.9399937e+02
8.00916e-05    	(-3.8146529e-07 8.6514621e-04 1.3142914e-07)	1.0000023e+05	2.9399937e+02
8.04672e-05    	(-3.7720682e-07 8.6402621e-04 1.2980638e-07)	1.0000023e+05	2.9399937e+02
8.08429e-05    	(-3.7245213e-07 8.6289334e-04 1.2735772e-07)	1.0000023e+05	2.9399936e+02
8.12185e-05    	(-3.7268864e-07 8.6174481e-04 1.2175769e-07)	1.0000022e+05	2.9399936e+02
8.15941e-05    	(-3.7730320e-07 8.6057967e-04 1.1496370e-07)	1.0000022e+05	2.9399936e+02
8.19697e-05    	(-3.7235046e-07 8.5939848e-04 1.1719540e-07)	1.0000022e+05	2.9399936e+02
8.23454e-05    	(-3.6148128e-07 8.5820113e-04 1.1580177e-07)	1.0000022e+05	2.9399935e+02
8.2721e-05     	(-3.4896946e-07 8.5698537e-04 1.1138379e-07)	1.0000021e+05	2.9399935e+02
8.30966e-05    	(-3.4498750e-07 8.5574932e-04 1.0769254e-07)	1.0000021e+05	2.9399935e+02
8.34723e-05    	(-3.4575189e-07 8.5449277e-04 1.0421539e-07)	1.0000021e+05	2.9399935e+02
8.38479e-05    	(-3.4209121e-07 8.5321640e-04 1.0071838e-07)	1.0000021e+05	2.9399934e+02
8.42235e-05    	(-3.3474824e-07 8.5191725e-04 9.5676391e-08)	1.0000020e+05	2.9399934e+02
8.45992e-05    	(-3.2579591e-07 8.5059281e-04 8.8608925e-08)	1.0000020e+05	2.9399934e+02
8.49748e-05    	(-3.2212728e-07 8.4924292e-04 8.3973246e-08)	1.0000020e+05	2.9399934e+02
8.53504e-05    	(-3.2011346e-07 8.4786690e-04 8.2313760e-08)	1.0000019e+05	2.9399934e+02
8.5726e-05     	(-3.1509905e-07 8.4646294e-04 7.9953164e-08)	1.0000019e+05	2.9399933e+02
8.61017e-05    	(-3.0783722e-07 8.4503030e-04 7.5364915e-08)	1.0000019e+05	2.9399933e+02
8.64773e-05    	(-3.0152943e-07 8.4356841e-04 7.0553863e-08)	1.0000019e+05	2.9399933e+02
8.68529e-05    	(-2.9541587e-07 8.4207594e-04 6.6456546e-08)	1.0000018e+05	2.9399933e+02
8.72286e-05    	(-2.8819560e-07 8.4055247e-04 6.2450950e-08)	1.0000018e+05	2.9399932e+02
8.76042e-05    	(-2.8025552e-07 8.3899847e-04 5.8269344e-08)	1.0000018e+05	2.9399932e+02
8.79798e-05    	(-2.7274409e-07 8.3741401e-04 5.5028678e-08)	1.0000018e+05	2.9399932e+02
8.83555e-05    	(-2.6503239e-07 8.3579897e-04 5.3242370e-08)	1.0000017e+05	2.9399932e+02
8.87311e-05    	(-2.5703622e-07 8.3415313e-04 5.2021159e-08)	1.0000017e+05	2.9399931e+02
8.91067e-05    	(-2.4957502e-07 8.3247655e-04 5.0317729e-08)	1.0000017e+05	2.9399931e+02
8.94824e-05    	(-2.4238226e-07 8.3076975e-04 4.8493752e-08)	1.0000016e+05	2.9399931e+02
8.9858e-05     	(-2.3414140e-07 8.2903332e-04 4.7162216e-08)	1.0000016e+05	2.9399931e+02
9.02336e-05    	(-2.2370354e-07 8.2726758e-04 4.6393273e-08)	1.0000016e+05	2.9399930e+02
9.06092e-05    	(-2.1402608e-07 8.2547355e-04 4.6116777e-08)	1.0000016e+05	2.9399930e+02
9.09849e-05    	(-2.0387898e-07 8.2365194e-04 4.6170693e-08)	1.0000015e+05	2.9399930e+02
9.13605e-05    	(-1.9375055e-07 8.2180358e-04 4.6861340e-08)	1.0000015e+05	2.9399930e+02
9.17361e-05    	(-1.8461704e-07 8.1992900e-04 4.8141750e-08)	1.0000015e+05	2.9399930e+02
9.21118e-05    	(-1.7700114e-07 8.1802935e-04 4.9128816e-08)	1.0000015e+05	2.9399929e+02
9.24874e-05    	(-1.7045078e-07 8.1610624e-04 4.9855427e-08)	1.0000014e+05	2.9399929e+02
9.2863e-05     	(-1.6431948e-07 8.1416117e-04 5.0611177e-08)	1.0000014e+05	2.9399929e+02
9.32387e-05    	(-1.5864693e-07 8.1219544e-04 5.1304043e-08)	1.0000014e+05	2.9399929e+02
9.36143e-05    	(-1.5547347e-07 8.1020936e-04 5.1696809e-08)	1.0000014e+05	2.9399928e+02
9.39899e-05    	(-1.5397662e-07 8.0820425e-04 5.1080490e-08)	1.0000013e+05	2.9399928e+02
9.43655e-05    	(-1.5249469e-07 8.0618166e-04 4.9915675e-08)	1.0000013e+05	2.9399928e+02
9.47412e-05    	(-1.4995600e-07 8.0414290e-04 4.8773192e-08)	1.0000013e+05	2.9399928e+02
9.51168e-05    	(-1.4634882e-07 8.0208907e-04 4.7836501e-08)	1.0000013e+05	2.9399928e+02
9.54924e-05    	(-1.4179013e-07 8.0002150e-04 4.7308425e-08)	1.0000012e+05	2.9399927e+02
9.58681e-05    	(-1.3629842e-07 7.9794131e-04 4.7320206e-08)	1.0000012e+05	2.9399927e+02
9.62437e-05    	(-1.3044140e-07 7.9584921e-04 4.7886302e-08)	1.0000012e+05	2.9399927e+02
9.66193e-05    	(-1.2452309e-07 7.9374703e-04 4.8788622e-08)	1.0000012e+05	2.9399927e+02
9.6995e-05     	(-1.1868523e-07 7.9163569e-04 5.0070374e-08)	1.0000011e+05	2.9399926e+02
9.73706e-05    	(-1.1293987e-07 7.8951623e-04 5.1662838e-08)	1.0000011e+05	2.9399926e+02
9.77462e-05    	(-1.0737108e-07 7.8738958e-04 5.3324634e-08)	1.0000011e+05	2.9399926e+02
9.81218e-05    	(-1.0187041e-07 7.8525715e-04 5.5373415e-08)	1.0000011e+05	2.9399926e+02
9.84975e-05    	(-9.6857765e-08 7.8312104e-04 5.8094025e-08)	1.0000010e+05	2.9399926e+02
9.88731e-05    	(-9.2101635e-08 7.8098200e-04 6.1115968e-08)	1.0000010e+05	2.9399925e+02
9.92487e-05    	(-8.6635537e-08 7.7884221e-04 6.4154141e-08)	1.0000010e+05	2.9399925e+02
9.96244e-05    	(-8.1978794e-08 7.7670399e-04 6.6775038e-08)	1.0000010e+05	2.9399925e+02
0.0001         	(-7.7717466e-08 7.7456590e-04 6.8647960e-08)	1.0000009e+05	2.9399925e+02
0.000100376    	(-7.2796822e-08 7.7242622e-04 7.0131495e-08)	1.0000009e+05	2.9399925e+02
0.000100751    	(-6.9132602e-08 7.7028816e-04 7.1485602e-08)	1.0000009e+05	2.9399924e+02
0.000101127    	(-6.7938004e-08 7.6815309e-04 7.3371988e-08)	1.0000009e+05	2.9399924e+02
0.000101503    	(-6.6478613e-08 7.6601946e-04 7.5761297e-08)	1.0000009e+05	2.9399924e+02
0.000101878    	(-6.4056045e-08 7.6388716e-04 7.8377484e-08)	1.0000008e+05	2.9399924e+02
0.000102254    	(-6.2976314e-08 7.6175799e-04 8.0442499e-08)	1.0000008e+05	2.9399924e+02
0.00010263     	(-6.2657058e-08 7.5963280e-04 8.1897848e-08)	1.0000008e+05	2.9399924e+02
0.000103005    	(-6.0300201e-08 7.5750913e-04 8.3106222e-08)	1.0000008e+05	2.9399923e+02
0.000103381    	(-5.7631643e-08 7.5538655e-04 8.4399512e-08)	1.0000007e+05	2.9399923e+02
0.000103757    	(-5.7071922e-08 7.5326796e-04 8.5102206e-08)	1.0000007e+05	2.9399923e+02
0.000104132    	(-5.6772707e-08 7.5115510e-04 8.5465437e-08)	1.0000007e+05	2.9399923e+02
0.000104508    	(-5.4613630e-08 7.4904732e-04 8.5172333e-08)	1.0000007e+05	2.9399923e+02
0.000104884    	(-5.3072055e-08 7.4694404e-04 8.5583803e-08)	1.0000007e+05	2.9399923e+02
0.000105259    	(-5.1923371e-08 7.4484715e-04 9.3179565e-08)	1.0000006e+05	2.9399922e+02
0.000105635    	(-4.9498298e-08 7.4275848e-04 1.0843377e-07)	1.0000006e+05	2.9399922e+02
0.000106011    	(-4.5307042e-08 7.4067921e-04 1.2077090e-07)	1.0000006e+05	2.9399922e+02
0.000106386    	(-4.2424578e-08 7.3861058e-04 1.2292323e-07)	1.0000006e+05	2.9399922e+02
0.000106762    	(-4.3048492e-08 7.3655392e-04 1.1670695e-07)	1.0000006e+05	2.9399922e+02
0.000107137    	(-4.4468806e-08 7.3450999e-04 1.1165637e-07)	1.0000006e+05	2.9399922e+02
0.000107513    	(-4.4882557e-08 7.3247898e-04 1.1672248e-07)	1.0000005e+05	2.9399921e+02
0.000107889    	(-4.4018296e-08 7.3046059e-04 1.2868473e-07)	1.0000005e+05	2.9399921e+02
0.000108264    	(-4.3712904e-08 7.2845674e-04 1.3995366e-07)	1.0000005e+05	2.9399921e+02
0.00010864     	(-4.5032009e-08 7.2647078e-04 1.4196822e-07)	1.0000005e+05	2.9399921e+02
0.000109016    	(-4.6616254e-08 7.2450305e-04 1.3629306e-07)	1.0000005e+05	2.9399921e+02
0.000109391    	(-4.7795237e-08 7.2255259e-04 1.3272895e-07)	1.0000005e+05	2.9399921e+02
0.000109767    	(-4.9192970e-08 7.2061925e-04 1.3506470e-07)	1.0000004e+05	2.9399921e+02
0.000110143    	(-5.1041493e-08 7.1870319e-04 1.4201141e-07)	1.0000004e+05	2.9399920e+02
0.000110518    	(-5.1985828e-08 7.1680632e-04 1.4942593e-07)	1.0000004e+05	2.9399920e+02
0.000110894    	(-5.2007110e-08 7.1493060e-04 1.5486456e-07)	1.0000004e+05	2.9399920e+02
0.00011127     	(-5.3548611e-08 7.1307670e-04 1.5876160e-07)	1.0000004e+05	2.9399920e+02
0.000111645    	(-5.7782020e-08 7.1124513e-04 1.6216769e-07)	1.0000004e+05	2.9399920e+02
0.000112021    	(-6.3037185e-08 7.0943649e-04 1.6537703e-07)	1.0000004e+05	2.9399920e+02
0.000112397    	(-6.7242079e-08 7.0765285e-04 1.6772000e-07)	1.0000003e+05	2.9399920e+02
0.000112772    	(-7.1093345e-08 7.0589771e-04 1.6909303e-07)	1.0000003e+05	2.9399920e+02
0.000113148    	(-7.4507979e-08 7.0417201e-04 1.6983276e-07)	1.0000003e+05	2.9399920e+02
0.000113524    	(-7.7726335e-08 7.0247341e-04 1.7087421e-07)	1.0000003e+05	2.9399919e+02
0.000113899    	(-7.9873644e-08 7.0080037e-04 1.7194872e-07)	1.0000003e+05	2.9399919e+02
0.000114275    	(-8.1580062e-08 6.9915908e-04 1.7259153e-07)	1.0000003e+05	2.9399919e+02
0.000114651    	(-8.4297479e-08 6.9755305e-04 1.7285285e-07)	1.0000003e+05	2.9399919e+02
0.000115026    	(-8.8515074e-08 6.9597791e-04 1.7370958e-07)	1.0000003e+05	2.9399919e+02
0.000115402    	(-9.3697772e-08 6.9443431e-04 1.7548750e-07)	1.0000003e+05	2.9399919e+02
0.000115778    	(-9.9133710e-08 6.9292599e-04 1.7612688e-07)	1.0000002e+05	2.9399919e+02
0.000116153    	(-1.0476909e-07 6.9145331e-04 1.7626727e-07)	1.0000002e+05	2.9399919e+02
0.000116529    	(-1.1012678e-07 6.9001475e-04 1.7669855e-07)	1.0000002e+05	2.9399919e+02
0.000116905    	(-1.1475399e-07 6.8860997e-04 1.7717687e-07)	1.0000002e+05	2.9399919e+02
0.00011728     	(-1.1910127e-07 6.8724065e-04 1.7754902e-07)	1.0000002e+05	2.9399919e+02
0.000117656    	(-1.2349593e-07 6.8590736e-04 1.7787657e-07)	1.0000002e+05	2.9399918e+02
0.000118032    	(-1.2777187e-07 6.8461023e-04 1.7813724e-07)	1.0000002e+05	2.9399918e+02
0.000118407    	(-1.3185136e-07 6.8334947e-04 1.7831654e-07)	1.0000002e+05	2.9399918e+02
0.000118783    	(-1.3573141e-07 6.8212557e-04 1.7869218e-07)	1.0000002e+05	2.9399918e+02
0.000119159    	(-1.3956195e-07 6.8093768e-04 1.7976848e-07)	1.0000002e+05	2.9399918e+02
0.000119534    	(-1.4403652e-07 6.7978415e-04 1.8182338e-07)	1.0000001e+05	2.9399918e+02
0.00011991     	(-1.4848329e-07 6.7866410e-04 1.8507511e-07)	1.0000001e+05	2.9399918e+02
0.000120285    	(-1.5118801e-07 6.7757793e-04 1.8884842e-07)	1.0000001e+05	2.9399918e+02
0.000120661    	(-1.5209859e-07 6.7652580e-04 1.9297005e-07)	1.0000001e+05	2.9399918e+02
0.000121037    	(-1.5193942e-07 6.7550773e-04 1.9743147e-07)	1.0000001e+05	2.9399918e+02
0.000121412    	(-1.5124110e-07 6.7452346e-04 2.0186933e-07)	1.0000001e+05	2.9399918e+02
0.000121788    	(-1.5026143e-07 6.7357304e-04 2.0574179e-07)	1.0000001e+05	2.9399918e+02
0.000122164    	(-1.4922566e-07 6.7265613e-04 2.0895741e-07)	1.0000001e+05	2.9399918e+02
0.000122539    	(-1.4816627e-07 6.7177168e-04 2.1159689e-07)	1.0000001e+05	2.9399918e+02
0.000122915    	(-1.4677828e-07 6.7091810e-04 2.1413485e-07)	1.0000001e+05	2.9399918e+02
0.000123291    	(-1.4464014e-07 6.7009357e-04 2.1666647e-07)	1.0000001e+05	2.9399918e+02
0.000123666    	(-1.4167854e-07 6.6929727e-04 2.1889833e-07)	1.0000001e+05	2.9399917e+02
0.000124042    	(-1.3800659e-07 6.6852841e-04 2.2030555e-07)	1.0000001e+05	2.9399917e+02
0.000124418    	(-1.3392184e-07 6.6778535e-04 2.2027638e-07)	1.0000001e+05	2.9399917e+02
0.000124793    	(-1.2959649e-07 6.6706658e-04 2.1786870e-07)	1.0000001e+05	2.9399917e+02
0.000125169    	(-1.2479436e-07 6.6636996e-04 2.1495864e-07)	1.0000001e+05	2.9399917e+02