# Region type : patch wOutlet
# Faces  :     940
# Area   :     7.7273522e-05
# Time         	sum(phi)
0              	0.0000000e+00
5.62517e-07    	6.7588450e-04
1.00486e-06    	5.9402750e-04
1.44172e-06    	4.1040708e-04
1.87835e-06    	2.8997298e-04
2.31864e-06    	2.2927703e-04
2.77704e-06    	2.0005033e-04
3.26432e-06    	1.8414945e-04
3.76282e-06    	1.7516767e-04
4.26106e-06    	1.7117948e-04
4.76173e-06    	1.7234652e-04
5.26405e-06    	1.8022156e-04
5.76286e-06    	1.9560194e-04
6.26046e-06    	2.1563062e-04
6.76084e-06    	2.3592492e-04
7.26547e-06    	2.5318913e-04
7.76906e-06    	2.6601786e-04
8.26759e-06    	2.7430032e-04
8.76244e-06    	2.7887209e-04
9.25495e-06    	2.8088638e-04
9.74585e-06    	2.8110264e-04
1.02355e-05    	2.7998269e-04
1.07232e-05    	2.7777507e-04
1.12085e-05    	2.7455635e-04
1.16911e-05    	2.7046019e-04
1.21704e-05    	2.6581022e-04
1.26454e-05    	2.6106603e-04
1.31158e-05    	2.5667489e-04
1.35844e-05    	2.5282975e-04
1.4053e-05     	2.4965300e-04
1.4523e-05     	2.4735854e-04
1.49951e-05    	2.4611253e-04
1.54694e-05    	2.4599006e-04
1.59461e-05    	2.4698380e-04
1.6426e-05     	2.4901558e-04
1.69088e-05    	2.5217820e-04
1.73938e-05    	2.5662871e-04
1.78806e-05    	2.6250646e-04
1.83691e-05    	2.6989834e-04
1.8859e-05     	2.7880586e-04
1.93503e-05    	2.8909469e-04
1.98425e-05    	3.0054694e-04
2.03343e-05    	3.1294012e-04
2.08255e-05    	3.2605147e-04
2.13163e-05    	3.3967532e-04
2.18069e-05    	3.5359072e-04
2.22975e-05    	3.6757471e-04
2.27878e-05    	3.8143351e-04
2.32776e-05    	3.9495401e-04
2.3767e-05     	4.0797156e-04
2.42553e-05    	4.2037774e-04
2.47418e-05    	4.3210852e-04
2.52258e-05    	4.4314629e-04
2.57078e-05    	4.5356599e-04
2.61882e-05    	4.6348305e-04
2.66679e-05    	4.7303847e-04
2.7148e-05     	4.8237158e-04
2.76289e-05    	4.9157480e-04
2.81103e-05    	5.0070491e-04
2.85919e-05    	5.0981299e-04
2.90744e-05    	5.1895887e-04
2.95579e-05    	5.2816867e-04
3.00424e-05    	5.3742985e-04
3.05275e-05    	5.4671103e-04
3.1013e-05     	5.5599413e-04
3.1499e-05     	5.6524923e-04
3.19853e-05    	5.7442249e-04
3.24722e-05    	5.8346810e-04
3.29594e-05    	5.9235059e-04
3.34468e-05    	6.0099122e-04
3.39344e-05    	6.0927841e-04
3.44215e-05    	6.1704462e-04
3.49076e-05    	6.2410577e-04
3.53922e-05    	6.3034834e-04
3.58746e-05    	6.3574475e-04
3.63544e-05    	6.4032941e-04
3.68325e-05    	6.4418183e-04
3.73099e-05    	6.4740070e-04
3.77878e-05    	6.5008046e-04
3.82684e-05    	6.5233529e-04
3.8753e-05     	6.5425058e-04
3.9241e-05     	6.5585021e-04
3.97269e-05    	6.5712687e-04
4.02107e-05    	6.5808782e-04
4.0693e-05     	6.5874231e-04
4.11743e-05    	6.5909104e-04
4.16553e-05    	6.5914789e-04
4.2136e-05     	6.5893236e-04
4.26165e-05    	6.5845101e-04
4.3097e-05     	6.5769539e-04
4.35777e-05    	6.5665415e-04
4.40589e-05    	6.5535858e-04
4.45408e-05    	6.5385686e-04
4.50233e-05    	6.5217971e-04
4.5506e-05     	6.5033450e-04
4.59884e-05    	6.4832580e-04
4.64704e-05    	6.4615971e-04
4.6952e-05     	6.4383943e-04
4.74331e-05    	6.4136707e-04
4.79138e-05    	6.3874616e-04
4.83941e-05    	6.3598185e-04
4.88745e-05    	6.3307457e-04
4.93557e-05    	6.3001691e-04
4.98383e-05    	6.2680814e-04
5.0322e-05     	6.2344883e-04
5.08068e-05    	6.1993769e-04
5.12922e-05    	6.1627890e-04
5.17774e-05    	6.1247982e-04
5.22621e-05    	6.0854400e-04
5.27458e-05    	6.0447686e-04
5.32284e-05    	6.0028638e-04
5.37098e-05    	5.9598179e-04
5.41902e-05    	5.9157432e-04
5.46696e-05    	5.8707963e-04
5.51482e-05    	5.8251733e-04
5.56261e-05    	5.7791136e-04
5.61034e-05    	5.7328532e-04
5.65802e-05    	5.6866472e-04
5.70565e-05    	5.6407757e-04
5.75316e-05    	5.5955883e-04
5.80056e-05    	5.5513302e-04
5.84786e-05    	5.5081985e-04
5.89507e-05    	5.4663566e-04
5.94222e-05    	5.4259370e-04
5.98929e-05    	5.3871044e-04
6.03626e-05    	5.3500836e-04
6.08312e-05    	5.3151372e-04
6.1299e-05     	5.2824717e-04
6.17664e-05    	5.2522035e-04
6.22342e-05    	5.2243940e-04
6.27035e-05    	5.1990531e-04
6.31751e-05    	5.1761253e-04
6.36489e-05    	5.1555899e-04
6.41229e-05    	5.1375142e-04
6.45953e-05    	5.1219165e-04
6.50652e-05    	5.1085393e-04
6.55326e-05    	5.0969613e-04
6.5997e-05     	5.0868704e-04
6.6459e-05     	5.0779006e-04
6.69191e-05    	5.0696978e-04
6.73783e-05    	5.0619849e-04
6.78374e-05    	5.0545697e-04
6.82972e-05    	5.0472424e-04
6.87583e-05    	5.0397077e-04
6.92211e-05    	5.0315866e-04
6.96856e-05    	5.0224860e-04
7.01513e-05    	5.0120506e-04
7.06181e-05    	5.0000933e-04
7.10858e-05    	4.9863720e-04
7.15539e-05    	4.9708771e-04
7.20226e-05    	4.9536428e-04
7.24918e-05    	4.9343088e-04
7.29617e-05    	4.9130807e-04
7.34318e-05    	4.8899160e-04
7.39023e-05    	4.8646103e-04
7.43731e-05    	4.8376741e-04
7.48438e-05    	4.8087154e-04
7.53144e-05    	4.7778784e-04
7.57848e-05    	4.7452344e-04
7.62549e-05    	4.7105132e-04
7.67244e-05    	4.6738917e-04
7.71934e-05    	4.6352445e-04
7.76619e-05    	4.5943807e-04
7.81299e-05    	4.5516452e-04
7.8597e-05     	4.5068206e-04
7.9063e-05     	4.4601089e-04
7.95277e-05    	4.4115642e-04
7.99912e-05    	4.3615385e-04
8.04544e-05    	4.3099506e-04
8.09181e-05    	4.2572256e-04
8.13829e-05    	4.2032946e-04
8.1849e-05     	4.1485005e-04
8.23163e-05    	4.0934342e-04
8.27849e-05    	4.0380738e-04
8.32549e-05    	3.9828349e-04
8.37264e-05    	3.9279602e-04
8.41995e-05    	3.8734075e-04
8.46742e-05    	3.8195937e-04
8.51507e-05    	3.7667731e-04
8.56287e-05    	3.7147877e-04
8.61082e-05    	3.6637002e-04
8.65881e-05    	3.6144830e-04
8.70678e-05    	3.5667485e-04
8.75474e-05    	3.5204110e-04
8.80273e-05    	3.4757323e-04
8.85079e-05    	3.4322019e-04
8.8989e-05     	3.3895088e-04
8.94696e-05    	3.3482758e-04
8.99499e-05    	3.3085185e-04
9.04303e-05    	3.2693294e-04
9.09111e-05    	3.2310608e-04
9.13927e-05    	3.1934139e-04
9.18752e-05    	3.1558223e-04
9.23592e-05    	3.1195314e-04
9.28443e-05    	3.0845660e-04
9.3329e-05     	3.0492732e-04
9.38132e-05    	3.0143314e-04
9.42958e-05    	2.9803478e-04
9.47756e-05    	2.9475677e-04
9.52521e-05    	2.9163883e-04
9.5725e-05     	2.8860826e-04
9.61947e-05    	2.8556360e-04
9.66624e-05    	2.8256386e-04
9.71304e-05    	2.7961498e-04
9.75995e-05    	2.7671804e-04
9.80709e-05    	2.7381194e-04
9.85453e-05    	2.7086419e-04
9.90222e-05    	2.6785136e-04
9.94992e-05    	2.6486938e-04
9.99748e-05    	2.6192888e-04
0.00010045     	2.5897966e-04
0.000100924    	2.5600502e-04
0.0001014      	2.5300044e-04
0.000101876    	2.4999651e-04
0.000102354    	2.4698610e-04
0.000102834    	2.4397507e-04
0.000103314    	2.4089589e-04
0.000103793    	2.3779770e-04
0.000104271    	2.3472223e-04
0.000104747    	2.3166387e-04
0.000105221    	2.2860060e-04
0.000105694    	2.2553861e-04
0.000106166    	2.2254560e-04
0.000106638    	2.1964726e-04
0.00010711     	2.1683559e-04
0.000107583    	2.1408287e-04
0.000108056    	2.1138629e-04
0.000108531    	2.0874621e-04
0.000109006    	2.0619304e-04
0.000109483    	2.0370175e-04
0.000109962    	2.0125647e-04
0.000110442    	1.9885540e-04
0.000110925    	1.9661150e-04
0.000111408    	1.9443416e-04
0.000111891    	1.9225548e-04
0.000112371    	1.9010762e-04
0.000112848    	1.8803584e-04
0.000113324    	1.8604943e-04
0.0001138      	1.8424276e-04
0.000114276    	1.8247812e-04
0.000114752    	1.8062605e-04
0.000115229    	1.7878663e-04
0.000115707    	1.7700003e-04
0.000116183    	1.7511693e-04
0.000116658    	1.7333319e-04
0.000117133    	1.7163166e-04
0.000117609    	1.6973117e-04
0.000118086    	1.6782862e-04
0.000118563    	1.6588319e-04
0.000119038    	1.6392751e-04
0.000119509    	1.6190240e-04
0.00011998     	1.5972965e-04
0.00012045     	1.5755357e-04
0.00012092     	1.5547470e-04
0.00012139     	1.5329879e-04
0.00012186     	1.5105070e-04
0.000122331    	1.4879294e-04
0.000122801    	1.4644734e-04
0.000123273    	1.4399616e-04
0.000123745    	1.4153666e-04
0.000124218    	1.3907336e-04
0.000124692    	1.3656154e-04
0.000125167    	1.3397761e-04
0.000125645    	1.3133604e-04
0.000126121    	1.2864315e-04
0.000126587    	1.2599859e-04
0.000127044    	1.2338704e-04
