# Region type : patch wOutlet
# Faces  :     2574
# Area   :     7.7677716e-05
# Time         	sum(phi)
0              	0.0000000e+00
4.82697e-07    	4.3857520e-08
8.85764e-07    	5.3071759e-08
1.28883e-06    	4.5917014e-08
1.6919e-06     	3.9428842e-08
2.09497e-06    	3.4530087e-08
2.28068e-06    	3.1639959e-08
2.4664e-06     	3.3177615e-08
2.65212e-06    	5.9300901e-08
2.83785e-06    	1.1785319e-07
3.02358e-06    	1.8423596e-07
3.20931e-06    	2.2153795e-07
3.39504e-06    	2.4775460e-07
3.58079e-06    	2.7967850e-07
3.76653e-06    	3.9304650e-07
3.95227e-06    	7.7659743e-07
4.13801e-06    	1.6215720e-06
4.32376e-06    	2.8957111e-06
4.5095e-06     	4.5324469e-06
4.69524e-06    	6.2618260e-06
4.881e-06      	7.9079489e-06
5.06679e-06    	9.3931738e-06
5.25257e-06    	1.0639804e-05
5.43835e-06    	1.1555154e-05
5.62413e-06    	1.2055978e-05
5.80991e-06    	1.2082703e-05
5.99569e-06    	1.1630259e-05
6.18147e-06    	1.0803971e-05
6.36725e-06    	9.6649731e-06
6.55304e-06    	8.3016161e-06
6.73885e-06    	6.8036881e-06
6.92463e-06    	5.3397978e-06
7.11041e-06    	4.0994933e-06
7.29619e-06    	3.2571613e-06
7.48197e-06    	2.8845373e-06
7.66775e-06    	3.0275785e-06
7.85352e-06    	3.6096997e-06
8.0393e-06     	4.5163550e-06
8.22508e-06    	5.6568486e-06
8.41086e-06    	6.8839945e-06
8.59664e-06    	8.0495998e-06
8.69667e-06    	8.6308264e-06
8.79669e-06    	9.0525590e-06
8.89672e-06    	9.3391085e-06
8.99674e-06    	9.4755893e-06
9.09677e-06    	9.4633970e-06
9.19679e-06    	9.3132311e-06
9.29682e-06    	9.0264060e-06
9.39685e-06    	8.6272454e-06
9.49687e-06    	8.1281388e-06
9.5969e-06     	7.5430000e-06
9.69692e-06    	6.8924371e-06
9.79695e-06    	6.2028939e-06
9.89697e-06    	5.5093693e-06
9.997e-06      	4.8361656e-06
1.0097e-05     	4.2094755e-06
1.01971e-05    	3.6619560e-06
1.02971e-05    	3.2204641e-06
1.03971e-05    	2.9018341e-06
1.04971e-05    	2.6938634e-06
1.05972e-05    	2.5875399e-06
1.06972e-05    	2.5742579e-06
1.07972e-05    	2.6414553e-06
1.08972e-05    	2.7768913e-06
1.09973e-05    	2.9657952e-06
1.10973e-05    	3.1912320e-06
1.11973e-05    	3.4365851e-06
1.12973e-05    	3.6928511e-06
1.13974e-05    	3.9562039e-06
1.14974e-05    	4.2229117e-06
1.15974e-05    	4.4722331e-06
1.16974e-05    	4.6886191e-06
1.17975e-05    	4.8620186e-06
1.18975e-05    	4.9845842e-06
1.19975e-05    	5.0508782e-06
1.20975e-05    	5.0643248e-06
1.21976e-05    	5.0200010e-06
1.22976e-05    	4.9108613e-06
1.23976e-05    	4.7650443e-06
1.24976e-05    	4.5732605e-06
1.25977e-05    	4.3527179e-06
1.26977e-05    	4.1311690e-06
1.27977e-05    	3.9266886e-06
1.28977e-05    	3.7300442e-06
1.29978e-05    	3.5492702e-06
1.30978e-05    	3.3960995e-06
1.31978e-05    	3.2735805e-06
1.32978e-05    	3.1865175e-06
1.33978e-05    	3.1392530e-06
1.34979e-05    	3.1413686e-06
1.35979e-05    	3.1987345e-06
1.36979e-05    	3.3006278e-06
1.37979e-05    	3.4379443e-06
1.38979e-05    	3.6083297e-06
1.39979e-05    	3.8010702e-06
1.40979e-05    	4.0015083e-06
1.4198e-05     	4.2004285e-06
1.4298e-05     	4.3913153e-06
1.4398e-05     	4.5699877e-06
1.4498e-05     	4.7325923e-06
1.4598e-05     	4.8768746e-06
1.4698e-05     	4.9929557e-06
1.4798e-05     	5.0756105e-06
1.48981e-05    	5.1249178e-06
1.49981e-05    	5.1411239e-06
1.50981e-05    	5.1292848e-06
1.51981e-05    	5.0960720e-06
1.52981e-05    	5.0440192e-06
1.53981e-05    	4.9755365e-06
1.54982e-05    	4.8948329e-06
1.55982e-05    	4.8187044e-06
1.56962e-05    	4.7477656e-06
1.57943e-05    	4.6850517e-06
1.58923e-05    	4.6488576e-06
1.59904e-05    	4.6425264e-06
1.60884e-05    	4.6729527e-06
1.61865e-05    	4.7359113e-06
1.62845e-05    	4.8250843e-06
1.63826e-05    	4.9357520e-06
1.64806e-05    	5.0611462e-06
1.65787e-05    	5.1949420e-06
1.66767e-05    	5.3331806e-06
1.67748e-05    	5.4724218e-06
1.68728e-05    	5.6087447e-06
1.69709e-05    	5.7396066e-06
1.70689e-05    	5.8636002e-06
1.7167e-05     	5.9847828e-06
1.7265e-05     	6.0933047e-06
1.73631e-05    	6.1818221e-06
1.74611e-05    	6.2493138e-06
1.75592e-05    	6.2965524e-06
1.76572e-05    	6.3271961e-06
1.77553e-05    	6.3465987e-06
1.78533e-05    	6.3549585e-06
1.79514e-05    	6.3503744e-06
1.80494e-05    	6.3385429e-06
1.81475e-05    	6.3244185e-06
1.82455e-05    	6.3137172e-06
1.83436e-05    	6.3125231e-06
1.84416e-05    	6.3249905e-06
1.85396e-05    	6.3542411e-06
1.86377e-05    	6.4005370e-06
1.87357e-05    	6.4649327e-06
1.88337e-05    	6.5450057e-06
1.89318e-05    	6.6387118e-06
1.90298e-05    	6.7424057e-06
1.91279e-05    	6.8534019e-06
1.92259e-05    	6.9687620e-06
1.93239e-05    	7.0857382e-06
1.9422e-05     	7.2008877e-06
1.952e-05      	7.3120901e-06
1.96181e-05    	7.4189231e-06
1.97161e-05    	7.5189896e-06
1.98141e-05    	7.6072075e-06
1.99122e-05    	7.6815001e-06
2.00102e-05    	7.7412522e-06
2.01083e-05    	7.7859137e-06
2.02063e-05    	7.8163702e-06
2.03043e-05    	7.8373779e-06
2.04024e-05    	7.8460194e-06
2.05004e-05    	7.8502343e-06
2.05984e-05    	7.8617824e-06
2.06963e-05    	7.8779057e-06
2.07943e-05    	7.9017842e-06
2.08922e-05    	7.9344282e-06
2.09902e-05    	7.9834904e-06
2.10881e-05    	8.0453412e-06
2.11861e-05    	8.1137491e-06
2.1284e-05     	8.1895515e-06
2.1382e-05     	8.2723162e-06
2.148e-05      	8.3608295e-06
2.15772e-05    	8.4523052e-06
2.16745e-05    	8.5459646e-06
2.17717e-05    	8.6403475e-06
2.1869e-05     	8.7331291e-06
2.19662e-05    	8.8219856e-06
2.20635e-05    	8.9059072e-06
2.21607e-05    	8.9849418e-06
2.2258e-05     	9.0658016e-06
2.23552e-05    	9.1464354e-06
2.24525e-05    	9.2230854e-06
2.25497e-05    	9.2884918e-06
2.2647e-05     	9.3422327e-06
2.27442e-05    	9.3876827e-06
2.28415e-05    	9.4274710e-06
2.29387e-05    	9.4666350e-06
2.3036e-05     	9.5082832e-06
2.31332e-05    	9.5471721e-06
2.32305e-05    	9.5871086e-06
2.33277e-05    	9.6316949e-06
2.3425e-05     	9.6859194e-06
2.35222e-05    	9.7444226e-06
2.36195e-05    	9.8056222e-06
2.37167e-05    	9.8736662e-06
2.3814e-05     	9.9469659e-06
2.39112e-05    	1.0023409e-05
2.40085e-05    	1.0100660e-05
2.41057e-05    	1.0177752e-05
2.4203e-05     	1.0253857e-05
2.43002e-05    	1.0329430e-05
2.43975e-05    	1.0403196e-05
2.44947e-05    	1.0477094e-05
2.4592e-05     	1.0548263e-05
2.46892e-05    	1.0618578e-05
2.47865e-05    	1.0684784e-05
2.48837e-05    	1.0744412e-05
2.4981e-05     	1.0797506e-05
2.50782e-05    	1.0843661e-05
2.51755e-05    	1.0883177e-05
2.52727e-05    	1.0915921e-05
2.537e-05      	1.0944023e-05
2.54672e-05    	1.0970975e-05
2.55645e-05    	1.0996118e-05
2.56617e-05    	1.1020626e-05
2.5759e-05     	1.1046664e-05
2.58562e-05    	1.1074630e-05
2.59535e-05    	1.1103375e-05
2.60507e-05    	1.1136710e-05
2.6148e-05     	1.1176454e-05
2.62452e-05    	1.1220068e-05
2.63425e-05    	1.1263931e-05
2.64397e-05    	1.1308111e-05
2.6537e-05     	1.1353930e-05
2.66342e-05    	1.1400665e-05
2.67315e-05    	1.1446004e-05
2.68287e-05    	1.1489454e-05
2.6926e-05     	1.1528917e-05
2.70232e-05    	1.1562244e-05
2.71205e-05    	1.1589041e-05
2.72177e-05    	1.1608734e-05
2.7315e-05     	1.1623681e-05
2.74122e-05    	1.1637682e-05
2.75095e-05    	1.1653857e-05
2.76067e-05    	1.1659304e-05
2.7704e-05     	1.1652638e-05
2.78012e-05    	1.1637185e-05
2.78985e-05    	1.1613596e-05
2.79957e-05    	1.1584228e-05
2.8093e-05     	1.1552246e-05
2.81902e-05    	1.1520010e-05
2.82875e-05    	1.1489370e-05
2.83847e-05    	1.1459637e-05
2.8482e-05     	1.1428070e-05
2.85792e-05    	1.1398186e-05
2.86765e-05    	1.1370331e-05
2.87737e-05    	1.1346296e-05
2.8871e-05     	1.1324399e-05
2.89682e-05    	1.1304144e-05
2.90655e-05    	1.1289150e-05
2.91627e-05    	1.1275687e-05
2.92599e-05    	1.1264865e-05
2.93572e-05    	1.1258007e-05
2.94544e-05    	1.1253722e-05
2.95517e-05    	1.1244507e-05
2.96489e-05    	1.1230636e-05
2.97462e-05    	1.1210864e-05
2.98434e-05    	1.1184305e-05
2.99407e-05    	1.1153062e-05
3.00379e-05    	1.1117766e-05
3.01352e-05    	1.1081824e-05
3.02324e-05    	1.1043532e-05
3.03297e-05    	1.1001236e-05
3.04269e-05    	1.0949558e-05
3.05241e-05    	1.0889560e-05
3.06214e-05    	1.0823597e-05
3.07186e-05    	1.0754379e-05
3.08159e-05    	1.0684334e-05
3.09131e-05    	1.0614563e-05
3.10103e-05    	1.0550317e-05
3.11076e-05    	1.0486689e-05
3.12048e-05    	1.0424510e-05
3.1302e-05     	1.0367587e-05
3.13993e-05    	1.0312493e-05
3.14965e-05    	1.0262163e-05
3.15937e-05    	1.0212234e-05
3.1691e-05     	1.0165744e-05
3.17882e-05    	1.0121035e-05
3.18855e-05    	1.0077381e-05
3.19827e-05    	1.0032915e-05
3.20799e-05    	9.9849020e-06
3.21772e-05    	9.9333654e-06
3.22744e-05    	9.8812782e-06
3.23716e-05    	9.8301141e-06
3.24689e-05    	9.7793263e-06
3.25661e-05    	9.7247441e-06
3.26634e-05    	9.6645157e-06
3.27606e-05    	9.6001070e-06
3.28578e-05    	9.5350074e-06
3.29551e-05    	9.4702275e-06
3.30523e-05    	9.4048521e-06
3.31495e-05    	9.3373640e-06
3.3244e-05     	9.2714559e-06
3.33384e-05    	9.2051499e-06
3.34329e-05    	9.1395058e-06
3.35274e-05    	9.0776001e-06
3.36219e-05    	9.0168268e-06
3.37163e-05    	8.9609486e-06
3.38108e-05    	8.9100297e-06
3.39053e-05    	8.8624677e-06
3.39999e-05    	8.8185096e-06
3.40944e-05    	8.7781789e-06
3.4184e-05     	8.7402323e-06
3.42739e-05    	8.7000805e-06
3.43637e-05    	8.6572448e-06
3.44535e-05    	8.6134052e-06
3.45434e-05    	8.5662538e-06
3.46321e-05    	8.5183992e-06
3.47209e-05    	8.4693773e-06
3.48098e-05    	8.4189944e-06
3.48987e-05    	8.3678148e-06
3.49876e-05    	8.3154484e-06
3.50765e-05    	8.2619705e-06
3.51655e-05    	8.2110931e-06
3.52544e-05    	8.1634680e-06
3.53433e-05    	8.1120776e-06
3.54322e-05    	8.0608057e-06
3.55212e-05    	8.0111754e-06
3.56102e-05    	7.9632742e-06
3.56991e-05    	7.9154822e-06
3.5788e-05     	7.8699748e-06
3.5877e-05     	7.8262871e-06
3.59659e-05    	7.7855972e-06
3.60549e-05    	7.7485974e-06
3.61438e-05    	7.7202694e-06
3.62328e-05    	7.6936761e-06
3.63217e-05    	7.6617990e-06
3.64106e-05    	7.6272125e-06
3.64996e-05    	7.5911700e-06
3.65885e-05    	7.5542383e-06
3.66774e-05    	7.5159345e-06
3.67664e-05    	7.4766218e-06
3.68553e-05    	7.4365548e-06
3.69442e-05    	7.3959079e-06
3.70331e-05    	7.3563438e-06
3.7122e-05     	7.3154909e-06
3.7211e-05     	7.2735285e-06
3.72999e-05    	7.2314770e-06
3.73888e-05    	7.1891667e-06
3.74777e-05    	7.1470439e-06
3.75666e-05    	7.1057387e-06
3.76555e-05    	7.0654992e-06
3.77444e-05    	7.0243405e-06
3.78333e-05    	6.9829485e-06
3.79222e-05    	6.9418804e-06
3.80111e-05    	6.9009242e-06
3.81e-05       	6.8599812e-06
3.81889e-05    	6.8206413e-06
3.82778e-05    	6.7802547e-06
3.83667e-05    	6.7413386e-06
3.84556e-05    	6.7032419e-06
3.85445e-05    	6.6657457e-06
3.86334e-05    	6.6298919e-06
3.87222e-05    	6.5949356e-06
3.88111e-05    	6.5613603e-06
3.89e-05       	6.5265406e-06
3.89889e-05    	6.4904012e-06
3.90778e-05    	6.4531425e-06
3.91666e-05    	6.4149587e-06
3.92555e-05    	6.3761550e-06
3.93444e-05    	6.3377963e-06
3.94333e-05    	6.3003682e-06
3.95221e-05    	6.2621068e-06
3.9611e-05     	6.2220612e-06
3.96999e-05    	6.1810473e-06
3.97888e-05    	6.1395233e-06
3.98776e-05    	6.0987665e-06
3.99665e-05    	6.0576657e-06
4.00554e-05    	6.0151053e-06
4.01442e-05    	5.9725213e-06
4.02331e-05    	5.9300594e-06
4.0322e-05     	5.8873166e-06
4.04108e-05    	5.8446124e-06
4.04997e-05    	5.8035205e-06
4.05886e-05    	5.7628873e-06
4.06774e-05    	5.7257246e-06
4.07663e-05    	5.6892063e-06
4.08552e-05    	5.6521717e-06
4.0944e-05     	5.6149969e-06
4.10329e-05    	5.5742756e-06
4.11218e-05    	5.5320869e-06
4.12107e-05    	5.4894558e-06
4.12995e-05    	5.4464837e-06
4.13884e-05    	5.4034205e-06
4.14773e-05    	5.3609753e-06
4.15661e-05    	5.3204658e-06
4.1655e-05     	5.2801226e-06
4.17439e-05    	5.2402402e-06
4.18327e-05    	5.2024461e-06
4.19216e-05    	5.1669657e-06
4.20105e-05    	5.1304689e-06
4.20994e-05    	5.0917596e-06
4.21882e-05    	5.0512457e-06
4.22771e-05    	5.0096518e-06
4.2366e-05     	4.9685499e-06
4.24549e-05    	4.9271471e-06
4.25438e-05    	4.8851217e-06
4.26326e-05    	4.8426852e-06
4.27215e-05    	4.7997534e-06
4.28104e-05    	4.7563665e-06
4.28993e-05    	4.7133158e-06
4.29882e-05    	4.6713730e-06
4.30771e-05    	4.6293316e-06
4.3166e-05     	4.5869898e-06
4.32549e-05    	4.5456913e-06
4.33438e-05    	4.5067589e-06
4.34327e-05    	4.4696354e-06
4.35216e-05    	4.4324650e-06
4.36104e-05    	4.3957391e-06
4.36994e-05    	4.3606339e-06
4.37883e-05    	4.3249965e-06
4.38772e-05    	4.2900104e-06
4.39508e-05    	4.2593602e-06
4.40246e-05    	4.2285365e-06
4.40983e-05    	4.1972718e-06
4.4172e-05     	4.1658440e-06
4.42457e-05    	4.1347901e-06
4.43193e-05    	4.1038032e-06
4.43929e-05    	4.0732910e-06
4.44666e-05    	4.0428860e-06
4.45403e-05    	4.0133551e-06
4.4614e-05     	3.9857325e-06
4.46877e-05    	3.9577155e-06
4.47614e-05    	3.9294057e-06
4.48351e-05    	3.9012383e-06
4.49088e-05    	3.8737418e-06
4.49825e-05    	3.8468877e-06
4.50562e-05    	3.8206157e-06
4.51299e-05    	3.7962205e-06
4.52035e-05    	3.7735957e-06
4.52772e-05    	3.7511320e-06
4.53509e-05    	3.7287433e-06
4.54245e-05    	3.7048568e-06
4.54982e-05    	3.6794187e-06
4.55719e-05    	3.6533607e-06
4.56455e-05    	3.6269112e-06
4.57192e-05    	3.6001934e-06
4.57929e-05    	3.5732027e-06
4.58665e-05    	3.5459388e-06
4.59402e-05    	3.5196418e-06
4.60139e-05    	3.4946746e-06
4.60875e-05    	3.4708291e-06
4.61612e-05    	3.4482720e-06
4.62349e-05    	3.4256499e-06
4.63085e-05    	3.4033297e-06
4.63822e-05    	3.3806560e-06
4.64559e-05    	3.3583281e-06
4.65295e-05    	3.3357701e-06
4.66032e-05    	3.3137177e-06
4.66769e-05    	3.2924179e-06
4.67506e-05    	3.2719093e-06
4.68243e-05    	3.2536100e-06
4.68979e-05    	3.2365862e-06
4.69716e-05    	3.2196089e-06
4.70453e-05    	3.2027398e-06
4.7119e-05     	3.1856149e-06
4.71927e-05    	3.1693410e-06
4.72664e-05    	3.1541358e-06
4.73401e-05    	3.1379632e-06
4.74138e-05    	3.1216023e-06
4.74875e-05    	3.1050389e-06
4.75611e-05    	3.0885739e-06
4.76348e-05    	3.0728375e-06
4.77085e-05    	3.0566669e-06
4.77822e-05    	3.0398243e-06
4.78559e-05    	3.0228601e-06
4.79296e-05    	3.0054773e-06
4.80033e-05    	2.9883421e-06
4.8077e-05     	2.9723572e-06
4.81507e-05    	2.9573157e-06
4.82245e-05    	2.9435498e-06
4.82982e-05    	2.9293735e-06
4.83719e-05    	2.9164464e-06
4.84456e-05    	2.9031777e-06
4.85193e-05    	2.8898710e-06
4.8593e-05     	2.8769474e-06
4.86667e-05    	2.8640408e-06
4.87404e-05    	2.8511799e-06
4.88141e-05    	2.8385152e-06
4.88879e-05    	2.8262546e-06
4.89616e-05    	2.8140226e-06
4.90353e-05    	2.8023103e-06
4.91091e-05    	2.7902401e-06
4.91828e-05    	2.7781492e-06
4.92565e-05    	2.7663238e-06
4.93302e-05    	2.7544361e-06
4.9404e-05     	2.7428345e-06
4.94777e-05    	2.7324897e-06
4.95514e-05    	2.7218608e-06
4.96251e-05    	2.7108585e-06
4.96988e-05    	2.7009994e-06
4.97726e-05    	2.6928986e-06
4.98464e-05    	2.6869137e-06
4.99201e-05    	2.6811695e-06
4.99938e-05    	2.6754082e-06
5.00675e-05    	2.6695736e-06
5.01413e-05    	2.6644611e-06
5.0215e-05     	2.6595973e-06
5.02888e-05    	2.6553865e-06
5.03625e-05    	2.6512418e-06
5.04362e-05    	2.6471104e-06
5.05099e-05    	2.6431514e-06
5.05837e-05    	2.6388261e-06
5.06575e-05    	2.6339756e-06
5.07312e-05    	2.6288956e-06
5.08049e-05    	2.6240134e-06
5.08787e-05    	2.6199053e-06
5.09524e-05    	2.6157333e-06
5.10262e-05    	2.6114544e-06
5.10999e-05    	2.6068898e-06
5.11737e-05    	2.6020952e-06
5.12474e-05    	2.5980218e-06
5.13212e-05    	2.5947142e-06
5.1395e-05     	2.5905729e-06
5.14687e-05    	2.5859896e-06
5.15424e-05    	2.5811437e-06
5.16162e-05    	2.5765931e-06
5.16899e-05    	2.5737890e-06
5.17637e-05    	2.5712935e-06
5.18375e-05    	2.5686500e-06
5.19112e-05    	2.5664466e-06
5.1985e-05     	2.5652222e-06
5.20587e-05    	2.5641347e-06
5.21325e-05    	2.5631193e-06
5.22062e-05    	2.5623340e-06
5.228e-05      	2.5615737e-06
5.23538e-05    	2.5610267e-06
5.24276e-05    	2.5611282e-06
5.25013e-05    	2.5623650e-06
5.25751e-05    	2.5635185e-06
5.26488e-05    	2.5644382e-06
5.27226e-05    	2.5657234e-06
5.27964e-05    	2.5669894e-06
5.28702e-05    	2.5692451e-06
5.29439e-05    	2.5718709e-06
5.30177e-05    	2.5757803e-06
5.30915e-05    	2.5801934e-06
5.31652e-05    	2.5849520e-06
5.3239e-05     	2.5895786e-06
5.33128e-05    	2.5941952e-06
5.33866e-05    	2.5986271e-06
5.34604e-05    	2.6031315e-06
5.35342e-05    	2.6078160e-06
5.36079e-05    	2.6122615e-06
5.36817e-05    	2.6165448e-06
5.37555e-05    	2.6208383e-06
5.38292e-05    	2.6244440e-06
5.3903e-05     	2.6279565e-06
5.39768e-05    	2.6309940e-06
5.40506e-05    	2.6355766e-06
5.41244e-05    	2.6398691e-06
5.41982e-05    	2.6438425e-06
5.42719e-05    	2.6478207e-06
5.43457e-05    	2.6513189e-06
5.44195e-05    	2.6543887e-06
5.44933e-05    	2.6576626e-06
5.45671e-05    	2.6602654e-06
5.46409e-05    	2.6629332e-06
5.47147e-05    	2.6656529e-06
5.47885e-05    	2.6686768e-06
5.48623e-05    	2.6725088e-06
5.4936e-05     	2.6766580e-06
5.50098e-05    	2.6821592e-06
5.50836e-05    	2.6869267e-06
5.51574e-05    	2.6921257e-06
5.52312e-05    	2.6986776e-06
5.5305e-05     	2.7055430e-06
5.53788e-05    	2.7123229e-06
5.54526e-05    	2.7188354e-06
5.55264e-05    	2.7252437e-06
5.56002e-05    	2.7313476e-06
5.5674e-05     	2.7384937e-06
5.57478e-05    	2.7477598e-06
5.58216e-05    	2.7584246e-06
5.58954e-05    	2.7687907e-06
5.59692e-05    	2.7780452e-06
5.6043e-05     	2.7864760e-06
5.61167e-05    	2.7943457e-06
5.61905e-05    	2.8019579e-06
5.62643e-05    	2.8092494e-06
5.63381e-05    	2.8162331e-06
5.64119e-05    	2.8235151e-06
5.64857e-05    	2.8312611e-06
5.65595e-05    	2.8386974e-06
5.66333e-05    	2.8458395e-06
5.67071e-05    	2.8528828e-06
5.67809e-05    	2.8596670e-06
5.68547e-05    	2.8666229e-06
5.69284e-05    	2.8732705e-06
5.70022e-05    	2.8801373e-06
5.7076e-05     	2.8869536e-06
5.71497e-05    	2.8945368e-06
5.72235e-05    	2.9011551e-06
5.72973e-05    	2.9072666e-06
5.73711e-05    	2.9135046e-06
5.74449e-05    	2.9201577e-06
5.75187e-05    	2.9267287e-06
5.75924e-05    	2.9334881e-06
5.76662e-05    	2.9404970e-06
5.77399e-05    	2.9477083e-06
5.78137e-05    	2.9553268e-06
5.78875e-05    	2.9648265e-06
5.79612e-05    	2.9752102e-06
5.8035e-05     	2.9844356e-06
5.81087e-05    	2.9923497e-06
5.81824e-05    	3.0003654e-06
5.82562e-05    	3.0083649e-06
5.83299e-05    	3.0165812e-06
5.84037e-05    	3.0251504e-06
5.84774e-05    	3.0336245e-06
5.85511e-05    	3.0424698e-06
5.86248e-05    	3.0514722e-06
5.86986e-05    	3.0610397e-06
5.87723e-05    	3.0708838e-06
5.88461e-05    	3.0792640e-06
5.89197e-05    	3.0869735e-06
5.89934e-05    	3.0946182e-06
5.90671e-05    	3.1024176e-06
5.91409e-05    	3.1101458e-06
5.92146e-05    	3.1177274e-06
5.92883e-05    	3.1251494e-06
5.9362e-05     	3.1330825e-06
5.94357e-05    	3.1411435e-06
5.95094e-05    	3.1488046e-06
5.95831e-05    	3.1564318e-06
5.96568e-05    	3.1639988e-06
5.97305e-05    	3.1717668e-06
5.98042e-05    	3.1811169e-06
5.98779e-05    	3.1928884e-06
5.99515e-05    	3.2045158e-06
6.00252e-05    	3.2160068e-06
6.00989e-05    	3.2263411e-06
6.01725e-05    	3.2369276e-06
6.02462e-05    	3.2473216e-06
6.03198e-05    	3.2578732e-06
6.03935e-05    	3.2685015e-06
6.04672e-05    	3.2787341e-06
6.05408e-05    	3.2890786e-06
6.06145e-05    	3.2998237e-06
6.06881e-05    	3.3096870e-06
6.07618e-05    	3.3191338e-06
6.08354e-05    	3.3281970e-06
6.0909e-05     	3.3365351e-06
6.09827e-05    	3.3442989e-06
6.10563e-05    	3.3513999e-06
6.11299e-05    	3.3579046e-06
6.12035e-05    	3.3640880e-06
6.12771e-05    	3.3698171e-06
6.13506e-05    	3.3753514e-06
6.14242e-05    	3.3808928e-06
6.14978e-05    	3.3866956e-06
6.15713e-05    	3.3934140e-06
6.16449e-05    	3.4000018e-06
6.17185e-05    	3.4066134e-06
6.1792e-05     	3.4141701e-06
6.18656e-05    	3.4220314e-06
6.19391e-05    	3.4299679e-06
6.20126e-05    	3.4389307e-06
6.20862e-05    	3.4501553e-06
6.21597e-05    	3.4612336e-06
6.22332e-05    	3.4720516e-06
6.23068e-05    	3.4820877e-06
6.23803e-05    	3.4921172e-06
6.24538e-05    	3.5011631e-06
6.25273e-05    	3.5099126e-06
6.26008e-05    	3.5181532e-06
6.26743e-05    	3.5260711e-06
6.27478e-05    	3.5336893e-06
6.28213e-05    	3.5415303e-06
