# Region type : patch cOutlet
# Faces  :     1591
# Area   :     4.0504348e-05
# Time         	average(U)	average(p)	average(T)
0              	(0.0000000e+00 0.0000000e+00 0.0000000e+00)	1.0000000e+05	2.9300000e+02
4.84042e-07    	(1.6626086e-07 -6.0306664e-04 5.6812908e-08)	1.0000094e+05	2.9400001e+02
8.88508e-07    	(-3.1841272e-08 -4.6758660e-04 1.2034468e-08)	1.0000042e+05	2.9399488e+02
1.29297e-06    	(6.8835792e-05 -3.7046715e-03 1.9443938e-05)	9.9998614e+04	2.9398248e+02
1.69744e-06    	(2.9623694e-04 -6.0621973e-03 -1.6659090e-05)	9.9975697e+04	2.9384327e+02
2.10191e-06    	(-4.4125858e-05 -3.3042369e-02 1.4192059e-04)	9.9952628e+04	2.9379420e+02
2.50637e-06    	(-3.3087347e-04 -6.9257028e-02 -1.5028092e-05)	9.9954030e+04	2.9383486e+02
2.91084e-06    	(-1.9058702e-04 -8.1161187e-02 -4.3379992e-04)	9.9957239e+04	2.9382603e+02
3.3153e-06     	(2.0065115e-04 -7.5653017e-02 -3.5752404e-04)	9.9945961e+04	2.9377079e+02
3.71977e-06    	(3.7456627e-04 -7.1467314e-02 3.1170381e-04)	9.9952540e+04	2.9382605e+02
4.12423e-06    	(4.1777181e-04 -6.8934436e-02 6.2832069e-04)	9.9963065e+04	2.9384924e+02
4.5287e-06     	(4.3991962e-04 -6.3755884e-02 3.8074433e-04)	9.9967718e+04	2.9385953e+02
4.93315e-06    	(9.3823775e-05 -5.9955384e-02 2.3736248e-04)	9.9965087e+04	2.9385173e+02
5.33759e-06    	(-1.0591511e-04 -5.1764887e-02 1.5397063e-04)	9.9962968e+04	2.9385277e+02
5.74206e-06    	(-5.2657514e-04 -4.7347850e-02 4.7848609e-06)	9.9955895e+04	2.9383742e+02
6.14653e-06    	(-1.9216350e-04 -4.3523778e-02 -1.2668081e-04)	9.9953760e+04	2.9384129e+02
6.55104e-06    	(-1.7929177e-04 -3.8101496e-02 -3.4727306e-04)	9.9950129e+04	2.9383625e+02
6.95558e-06    	(-6.0940400e-04 -3.4087522e-02 -3.9652769e-04)	9.9946765e+04	2.9382646e+02
7.36028e-06    	(-7.2480028e-04 -3.1259323e-02 -5.5671974e-04)	9.9945195e+04	2.9382888e+02
7.76497e-06    	(-3.1705673e-05 -2.9325749e-02 5.2579133e-04)	9.9944493e+04	2.9382702e+02
8.16964e-06    	(-7.9143367e-05 -2.7791536e-02 4.3814977e-04)	9.9945528e+04	2.9383180e+02
8.57432e-06    	(-7.3910700e-05 -2.8080431e-02 -3.6746779e-04)	9.9945795e+04	2.9383146e+02
8.979e-06      	(-5.3422749e-04 -2.6283014e-02 -2.7235409e-04)	9.9948087e+04	2.9383947e+02
9.38367e-06    	(-6.1816231e-04 -2.5316373e-02 -4.8710869e-04)	9.9949609e+04	2.9384172e+02
9.78834e-06    	(-7.7467122e-04 -2.5037021e-02 -4.9667100e-04)	9.9951014e+04	2.9384309e+02
1.0193e-05     	(-7.9609174e-04 -2.3831615e-02 -3.9839067e-04)	9.9951925e+04	2.9384561e+02
1.05977e-05    	(-4.2335926e-04 -2.3513914e-02 -3.8821747e-04)	9.9952035e+04	2.9384175e+02
1.10023e-05    	(-9.5998742e-04 -2.3975178e-02 -1.0719047e-03)	9.9952998e+04	2.9384507e+02
1.1407e-05     	(-4.8782660e-04 -2.3864328e-02 -6.1318160e-04)	9.9953292e+04	2.9384410e+02
1.18117e-05    	(-2.2882997e-04 -2.3073634e-02 -1.1056771e-03)	9.9953751e+04	2.9384326e+02
1.22164e-05    	(-1.0701437e-04 -2.2449685e-02 9.2104035e-05)	9.9955438e+04	2.9384632e+02
1.26212e-05    	(-4.7985121e-04 -2.2112839e-02 1.7383138e-04)	9.9954815e+04	2.9384313e+02
1.30259e-05    	(-1.0173200e-03 -2.1344898e-02 4.8529398e-04)	9.9956040e+04	2.9384701e+02
1.34308e-05    	(-1.0418706e-04 -2.0723640e-02 5.6796748e-04)	9.9956103e+04	2.9384311e+02
1.38357e-05    	(-3.9176248e-04 -2.0911146e-02 7.3201563e-04)	9.9955865e+04	2.9384126e+02
1.42406e-05    	(-1.7163246e-03 -2.0265056e-02 2.9087469e-04)	9.9956858e+04	2.9384340e+02
1.46455e-05    	(-8.0152102e-04 -1.9606875e-02 5.1713744e-04)	9.9956936e+04	2.9384164e+02
1.50504e-05    	(3.2208077e-04 -1.9370141e-02 5.1865052e-04)	9.9957149e+04	2.9384249e+02
1.54554e-05    	(9.3863720e-04 -1.9003119e-02 3.3766718e-04)	9.9957937e+04	2.9384499e+02
1.58603e-05    	(-2.6289245e-07 -1.7648105e-02 -1.7545580e-04)	9.9957729e+04	2.9384206e+02
1.62652e-05    	(-1.8774071e-05 -1.7251402e-02 -1.2948849e-03)	9.9958370e+04	2.9384257e+02
1.667e-05      	(-2.0192736e-03 -1.7065881e-02 -5.1594894e-04)	9.9957576e+04	2.9383930e+02
1.70749e-05    	(-1.5239470e-03 -1.7405313e-02 6.2172898e-04)	9.9957247e+04	2.9383624e+02
1.74798e-05    	(-1.5516124e-04 -1.7275659e-02 5.6338884e-04)	9.9957768e+04	2.9383858e+02
1.78846e-05    	(-1.8607189e-04 -1.6793659e-02 -1.0302409e-03)	9.9958243e+04	2.9383923e+02
1.82895e-05    	(1.1239327e-04 -1.6578465e-02 -4.4522782e-04)	9.9958525e+04	2.9383656e+02
1.86944e-05    	(-3.6503060e-04 -1.5682539e-02 3.2499286e-04)	9.9958291e+04	2.9383418e+02
1.90992e-05    	(-8.0681496e-04 -1.6132387e-02 -1.1517695e-03)	9.9958395e+04	2.9383386e+02
1.9504e-05     	(-9.1999808e-04 -1.5996219e-02 -7.9877352e-04)	9.9957615e+04	2.9383105e+02
1.99089e-05    	(-2.4894420e-04 -1.6803750e-02 -3.5099288e-04)	9.9957747e+04	2.9383065e+02
2.03138e-05    	(3.8815816e-04 -1.7515946e-02 -9.2470127e-05)	9.9957221e+04	2.9382844e+02
2.07188e-05    	(-4.7397419e-05 -1.7510673e-02 2.1472048e-05)	9.9958245e+04	2.9383137e+02
2.11238e-05    	(1.3461794e-04 -1.6457937e-02 1.1388207e-04)	9.9958391e+04	2.9383004e+02
2.15287e-05    	(-9.6574796e-04 -1.6475895e-02 2.0216818e-04)	9.9957890e+04	2.9382665e+02
2.19337e-05    	(-3.0835441e-04 -1.6697495e-02 -9.8030977e-04)	9.9957656e+04	2.9382674e+02
2.23387e-05    	(-2.1524295e-04 -1.6041937e-02 -7.0253354e-04)	9.9957454e+04	2.9382458e+02
2.27436e-05    	(1.2198167e-04 -1.6638232e-02 3.3449749e-04)	9.9956709e+04	2.9382111e+02
2.31486e-05    	(-1.8620321e-04 -1.7280311e-02 7.8102616e-04)	9.9955739e+04	2.9381558e+02
2.35535e-05    	(-8.1314130e-04 -1.9119484e-02 -5.8112192e-05)	9.9955185e+04	2.9381291e+02
2.39585e-05    	(-3.9952762e-04 -2.0781380e-02 4.0508217e-05)	9.9955259e+04	2.9381335e+02
2.43634e-05    	(9.4646298e-04 -2.2030051e-02 1.1931146e-03)	9.9955355e+04	2.9381140e+02
2.47684e-05    	(5.7119157e-04 -2.3270061e-02 9.9890696e-04)	9.9956871e+04	2.9381557e+02
2.51733e-05    	(-3.6051256e-04 -2.3421597e-02 6.2092822e-04)	9.9959290e+04	2.9381988e+02
2.55783e-05    	(-1.0365753e-04 -2.4010256e-02 3.5609552e-04)	9.9960545e+04	2.9382132e+02
2.59832e-05    	(1.2575595e-04 -2.4694869e-02 1.7545199e-04)	9.9961706e+04	2.9381927e+02
2.63881e-05    	(-1.7128424e-04 -2.6253792e-02 5.2208570e-04)	9.9963632e+04	2.9382377e+02
2.6793e-05     	(1.4929732e-04 -2.7085308e-02 1.3014120e-03)	9.9965913e+04	2.9382945e+02
2.71979e-05    	(-3.2633519e-04 -2.7557672e-02 3.0282773e-04)	9.9967980e+04	2.9383241e+02
2.76029e-05    	(5.2765293e-04 -2.8318906e-02 4.7681409e-04)	9.9969698e+04	2.9383295e+02
2.80079e-05    	(4.0851662e-04 -2.9026292e-02 1.1251082e-05)	9.9971288e+04	2.9383606e+02
2.84129e-05    	(1.4785818e-04 -2.9637314e-02 1.0118070e-03)	9.9972284e+04	2.9383694e+02
2.88179e-05    	(4.7037354e-04 -2.9801742e-02 7.9865693e-04)	9.9973567e+04	2.9383842e+02
2.92229e-05    	(1.6969424e-03 -3.0242752e-02 -1.1002154e-04)	9.9973847e+04	2.9383523e+02
2.96279e-05    	(4.1366918e-04 -3.0928516e-02 -5.7341379e-04)	9.9974658e+04	2.9383668e+02
3.0033e-05     	(-3.0983428e-05 -3.1223326e-02 -2.4679770e-04)	9.9975338e+04	2.9383844e+02
3.0438e-05     	(-1.1493481e-04 -3.0332469e-02 1.1223021e-04)	9.9975841e+04	2.9383898e+02
3.0843e-05     	(2.9450830e-04 -2.9924791e-02 1.4448797e-05)	9.9976002e+04	2.9383813e+02
3.1248e-05     	(9.1062753e-04 -2.9340940e-02 1.3197482e-03)	9.9975714e+04	2.9383476e+02
3.1653e-05     	(1.6193594e-03 -2.9162466e-02 1.1447007e-03)	9.9976060e+04	2.9383657e+02
3.20581e-05    	(9.5263352e-04 -2.8811189e-02 3.7117007e-04)	9.9974841e+04	2.9383080e+02
3.24631e-05    	(-3.2674164e-04 -2.9366141e-02 3.4604831e-04)	9.9975011e+04	2.9383325e+02
3.28682e-05    	(-9.6234212e-04 -2.9022563e-02 1.2531004e-04)	9.9974965e+04	2.9383245e+02
3.32733e-05    	(-1.7205217e-04 -2.8366031e-02 -5.0106734e-04)	9.9974939e+04	2.9383192e+02
3.36783e-05    	(1.0399359e-03 -2.8155975e-02 -3.1742517e-04)	9.9974924e+04	2.9383051e+02
3.40834e-05    	(1.9076592e-03 -2.7415649e-02 1.2033941e-03)	9.9974535e+04	2.9382973e+02
3.44885e-05    	(1.7733692e-03 -2.7551901e-02 1.8443131e-03)	9.9974749e+04	2.9383062e+02
3.48935e-05    	(6.8446605e-04 -2.7498801e-02 7.8695082e-04)	9.9974048e+04	2.9382634e+02
3.52986e-05    	(-4.6726411e-04 -2.7215698e-02 1.0800411e-03)	9.9974277e+04	2.9382820e+02
3.57037e-05    	(-1.0606086e-03 -2.6808474e-02 2.8782119e-04)	9.9974443e+04	2.9382674e+02
3.61088e-05    	(2.0340220e-04 -2.7180220e-02 -6.1342669e-04)	9.9973928e+04	2.9382499e+02
3.65139e-05    	(1.1707282e-03 -2.7122878e-02 -1.1360178e-03)	9.9974050e+04	2.9382604e+02
3.6919e-05     	(1.4442450e-03 -2.6522684e-02 -3.9815445e-04)	9.9973851e+04	2.9382336e+02
3.73241e-05    	(1.3016401e-03 -2.7284364e-02 1.4018866e-03)	9.9973959e+04	2.9382446e+02
3.77292e-05    	(6.4301690e-04 -2.6879470e-02 8.8442035e-04)	9.9973930e+04	2.9382325e+02
3.81343e-05    	(3.9261929e-04 -2.6354669e-02 5.9711230e-04)	9.9974005e+04	2.9382133e+02
3.85394e-05    	(-9.2361581e-04 -2.5936397e-02 -1.0005854e-04)	9.9974013e+04	2.9382211e+02
3.89445e-05    	(-2.0597889e-04 -2.5634106e-02 -3.3534349e-04)	9.9973067e+04	2.9381690e+02
3.93496e-05    	(1.3512594e-03 -2.5854245e-02 -3.4726522e-04)	9.9972964e+04	2.9382018e+02
3.97547e-05    	(1.8823368e-03 -2.4844995e-02 -2.1149949e-05)	9.9972325e+04	2.9381629e+02
4.01598e-05    	(1.7138289e-03 -2.4999477e-02 1.3266197e-03)	9.9971940e+04	2.9381373e+02
4.05649e-05    	(4.2917815e-04 -2.4508396e-02 1.2655554e-03)	9.9971624e+04	2.9381420e+02
4.097e-05      	(-2.3116508e-04 -2.4440977e-02 8.1329346e-04)	9.9971683e+04	2.9381504e+02
4.13751e-05    	(-2.8568827e-05 -2.3546920e-02 -8.6554862e-04)	9.9970954e+04	2.9381133e+02
4.17802e-05    	(5.6564780e-04 -2.3576444e-02 -1.4083530e-03)	9.9970577e+04	2.9381212e+02
4.21853e-05    	(-4.6766351e-05 -2.3420742e-02 3.5890562e-04)	9.9969824e+04	2.9380882e+02
4.25904e-05    	(4.4013473e-04 -2.3453001e-02 1.3778017e-03)	9.9969178e+04	2.9380875e+02
4.29955e-05    	(1.4447191e-03 -2.3224085e-02 9.4819748e-04)	9.9969687e+04	2.9380844e+02
4.34006e-05    	(1.1047108e-03 -2.2815785e-02 4.4142147e-04)	9.9969366e+04	2.9380748e+02
4.38057e-05    	(-1.9743729e-04 -2.2996188e-02 2.0312323e-04)	9.9968853e+04	2.9380714e+02
4.42108e-05    	(-1.3664118e-03 -2.2831161e-02 -2.7508259e-04)	9.9968785e+04	2.9380478e+02
4.46159e-05    	(-6.1623015e-04 -2.3089700e-02 1.7016413e-04)	9.9968206e+04	2.9380168e+02
4.5021e-05     	(1.9071221e-04 -2.3539718e-02 -2.5536537e-04)	9.9968639e+04	2.9380287e+02
4.54261e-05    	(5.9946869e-04 -2.3771739e-02 2.3090476e-04)	9.9968665e+04	2.9380321e+02
4.58312e-05    	(1.1070602e-03 -2.3689797e-02 1.0159865e-03)	9.9969179e+04	2.9380185e+02
4.62363e-05    	(4.6574364e-04 -2.4163540e-02 -3.0719832e-04)	9.9969061e+04	2.9380202e+02
4.66415e-05    	(-1.2931463e-03 -2.4502589e-02 -1.8751373e-04)	9.9969571e+04	2.9380252e+02
4.70466e-05    	(-1.5332787e-03 -2.4343890e-02 -5.1545494e-05)	9.9969205e+04	2.9380050e+02
4.74517e-05    	(-2.8270311e-04 -2.5012804e-02 -1.1645205e-03)	9.9970141e+04	2.9380313e+02
4.78568e-05    	(-5.1295298e-04 -2.4612615e-02 -1.2119652e-03)	9.9970329e+04	2.9380148e+02
4.82619e-05    	(2.3963667e-04 -2.5371663e-02 2.1670515e-04)	9.9970329e+04	2.9380009e+02
4.8667e-05     	(1.4864150e-03 -2.5720163e-02 2.9093632e-04)	9.9970813e+04	2.9380368e+02
4.90721e-05    	(7.2830146e-04 -2.5718874e-02 -1.6777869e-04)	9.9970883e+04	2.9380049e+02
4.94772e-05    	(3.1663054e-05 -2.6115583e-02 4.9513089e-04)	9.9971263e+04	2.9380138e+02
4.98823e-05    	(-1.6821581e-03 -2.5903060e-02 -1.2782345e-04)	9.9971829e+04	2.9380265e+02
5.02874e-05    	(-1.0230156e-03 -2.6195348e-02 3.3652941e-04)	9.9972052e+04	2.9380248e+02
5.06925e-05    	(-2.6192652e-04 -2.6211252e-02 -7.5529775e-04)	9.9972409e+04	2.9380365e+02
5.10977e-05    	(5.4521625e-05 -2.6044385e-02 -2.0024001e-04)	9.9972118e+04	2.9380006e+02
5.15028e-05    	(1.2257865e-03 -2.6824069e-02 -2.7021183e-04)	9.9972417e+04	2.9380218e+02
5.19079e-05    	(5.5978074e-04 -2.6688410e-02 -2.8797964e-04)	9.9972342e+04	2.9380071e+02
5.2313e-05     	(2.5791762e-05 -2.7181319e-02 -8.9686922e-04)	9.9972380e+04	2.9380044e+02
5.27181e-05    	(5.6112555e-06 -2.6822421e-02 -5.5272492e-04)	9.9973064e+04	2.9380056e+02
5.31232e-05    	(-4.6671788e-04 -2.6931512e-02 8.8450082e-04)	9.9973079e+04	2.9380016e+02
5.35284e-05    	(-6.6083721e-04 -2.6346762e-02 1.4706091e-04)	9.9973173e+04	2.9380126e+02
5.39335e-05    	(-2.3029591e-04 -2.6215495e-02 1.2182045e-04)	9.9973260e+04	2.9380106e+02
5.43386e-05    	(1.3115649e-04 -2.6398111e-02 4.8893815e-04)	9.9973159e+04	2.9380040e+02
5.47437e-05    	(-3.3192336e-04 -2.6751358e-02 -4.6807190e-04)	9.9972502e+04	2.9379832e+02
5.51488e-05    	(6.7781442e-05 -2.6973009e-02 -5.1993751e-04)	9.9972667e+04	2.9379587e+02
5.55539e-05    	(-4.4450184e-04 -2.7323970e-02 4.6852610e-04)	9.9973057e+04	2.9379708e+02
5.59591e-05    	(-4.0681485e-04 -2.7733254e-02 3.0717755e-04)	9.9973284e+04	2.9379652e+02
5.63642e-05    	(-1.0606562e-04 -2.7918492e-02 -4.5894753e-04)	9.9973437e+04	2.9379858e+02
5.67693e-05    	(6.5373225e-05 -2.8020301e-02 -5.0661895e-04)	9.9973336e+04	2.9379503e+02
5.71744e-05    	(1.2779349e-03 -2.8972340e-02 -4.0712831e-04)	9.9973748e+04	2.9379578e+02
5.75795e-05    	(8.1616671e-04 -2.9833761e-02 -5.8282331e-04)	9.9973901e+04	2.9379577e+02
5.79846e-05    	(5.5960411e-04 -3.0104328e-02 -3.1630760e-04)	9.9974845e+04	2.9379797e+02
5.83898e-05    	(6.4209376e-04 -3.0598650e-02 -8.0990191e-04)	9.9975590e+04	2.9379832e+02
5.87949e-05    	(4.7236199e-04 -3.1422394e-02 -2.7719601e-04)	9.9975925e+04	2.9379834e+02
5.92e-05       	(4.1353270e-04 -3.1865614e-02 -5.8504094e-05)	9.9976779e+04	2.9379889e+02
5.96051e-05    	(3.6225158e-04 -3.2634874e-02 -1.1653242e-03)	9.9977439e+04	2.9379977e+02
6.00102e-05    	(2.1493559e-03 -3.3371842e-02 -8.1682775e-04)	9.9977886e+04	2.9380091e+02
6.04153e-05    	(2.4633066e-03 -3.3748732e-02 -1.1418780e-03)	9.9978953e+04	2.9380205e+02
6.08204e-05    	(2.2948579e-03 -3.4199189e-02 -1.9212615e-04)	9.9979381e+04	2.9380262e+02
6.12256e-05    	(1.4028090e-03 -3.4160506e-02 -6.9923767e-04)	9.9980220e+04	2.9380272e+02
6.16307e-05    	(1.0809361e-03 -3.4679279e-02 -1.1226795e-03)	9.9980568e+04	2.9380272e+02
6.20358e-05    	(1.5830052e-03 -3.5663988e-02 -1.7544584e-03)	9.9980830e+04	2.9380235e+02
6.24409e-05    	(1.1658785e-03 -3.5748766e-02 -5.9827174e-04)	9.9981533e+04	2.9380387e+02
6.2846e-05     	(6.3183923e-04 -3.5766247e-02 -6.6222463e-04)	9.9982561e+04	2.9380550e+02
6.32511e-05    	(1.1621088e-03 -3.5805056e-02 -4.9049867e-04)	9.9982530e+04	2.9380411e+02
6.36563e-05    	(1.5410860e-03 -3.5679693e-02 -6.9834658e-04)	9.9983340e+04	2.9380706e+02
6.40614e-05    	(5.4316598e-04 -3.5528440e-02 -8.0226039e-04)	9.9983287e+04	2.9380553e+02
6.44665e-05    	(-4.5452155e-05 -3.5981520e-02 -5.7003136e-04)	9.9982829e+04	2.9379869e+02
6.48716e-05    	(-1.2339271e-03 -3.7024592e-02 -8.3597866e-05)	9.9982691e+04	2.9380213e+02
6.52767e-05    	(-1.4173322e-03 -3.6807646e-02 -5.0532099e-04)	9.9983895e+04	2.9380371e+02
6.56819e-05    	(-1.1779716e-03 -3.7158367e-02 -8.9404484e-04)	9.9984161e+04	2.9380262e+02
6.6087e-05     	(-7.5290682e-04 -3.7631732e-02 -1.0678922e-03)	9.9984092e+04	2.9380331e+02
6.64921e-05    	(-1.1909099e-03 -3.7844530e-02 -9.7431889e-04)	9.9984438e+04	2.9380388e+02
6.68972e-05    	(-7.9262595e-04 -3.8391157e-02 -9.9119161e-04)	9.9984197e+04	2.9380116e+02
6.73024e-05    	(-3.1587421e-04 -3.9325384e-02 -1.0961934e-03)	9.9984993e+04	2.9380302e+02
6.77075e-05    	(-8.3597728e-04 -3.9752249e-02 -4.4955484e-04)	9.9985566e+04	2.9380391e+02
6.81126e-05    	(-1.4454314e-03 -3.9883679e-02 -6.9730538e-04)	9.9986423e+04	2.9380568e+02
6.85178e-05    	(-1.8129583e-03 -4.0231528e-02 -1.2905108e-03)	9.9987205e+04	2.9380623e+02
6.89229e-05    	(-1.5438870e-03 -4.0797855e-02 -9.5360458e-04)	9.9987629e+04	2.9380785e+02
6.9328e-05     	(-6.2184738e-04 -4.1352238e-02 -8.2481643e-04)	9.9987879e+04	2.9380627e+02
6.97332e-05    	(-5.2784457e-04 -4.2054318e-02 -2.7372007e-04)	9.9988123e+04	2.9380603e+02
7.01383e-05    	(2.6451215e-04 -4.2600892e-02 1.6502266e-04)	9.9989401e+04	2.9381056e+02
7.05434e-05    	(-1.2138482e-04 -4.2739137e-02 -3.4263832e-04)	9.9990067e+04	2.9380945e+02
7.09486e-05    	(-1.3143894e-03 -4.3636369e-02 -1.1779173e-03)	9.9990564e+04	2.9381110e+02
7.13537e-05    	(-1.3831599e-03 -4.3658627e-02 -7.2945067e-04)	9.9991086e+04	2.9380964e+02
7.17588e-05    	(-1.8276037e-03 -4.4881903e-02 1.4951246e-04)	9.9990919e+04	2.9380869e+02
7.2164e-05     	(-1.4780195e-03 -4.5103690e-02 -4.9587482e-04)	9.9991707e+04	2.9381026e+02
7.25691e-05    	(-1.4460657e-03 -4.5470047e-02 -6.8439304e-04)	9.9992357e+04	2.9381100e+02
7.29742e-05    	(-8.2741294e-05 -4.5863415e-02 -5.4226336e-04)	9.9992617e+04	2.9381149e+02
7.33794e-05    	(3.1079273e-04 -4.6032050e-02 5.9971113e-04)	9.9992713e+04	2.9380929e+02
7.37845e-05    	(-9.8168860e-04 -4.6996691e-02 1.0555220e-04)	9.9992475e+04	2.9380850e+02
7.41897e-05    	(-9.8669374e-04 -4.7023617e-02 7.4739702e-04)	9.9992921e+04	2.9380949e+02
7.45948e-05    	(-1.6856925e-03 -4.7471671e-02 1.0200011e-03)	9.9993209e+04	2.9380928e+02
7.5e-05        	(-1.7204033e-03 -4.7543931e-02 5.7254620e-04)	9.9993925e+04	2.9381018e+02
7.54051e-05    	(-1.8401758e-03 -4.7802586e-02 -5.9160902e-04)	9.9993780e+04	2.9380831e+02
7.58103e-05    	(-1.7162212e-03 -4.8081153e-02 -5.2534494e-05)	9.9993611e+04	2.9380657e+02
7.62154e-05    	(-1.4168746e-03 -4.9086038e-02 1.5983030e-03)	9.9993932e+04	2.9380724e+02
7.66206e-05    	(-1.6196196e-03 -4.9558890e-02 1.6250145e-03)	9.9994169e+04	2.9380781e+02
7.70257e-05    	(-1.3272042e-03 -4.9648951e-02 8.2278184e-04)	9.9995603e+04	2.9381202e+02
7.74309e-05    	(-1.5268256e-03 -5.0069083e-02 9.0831595e-04)	9.9995443e+04	2.9380934e+02
7.7836e-05     	(-1.3698666e-03 -5.0757279e-02 1.1614146e-03)	9.9995952e+04	2.9381130e+02
7.82412e-05    	(-1.3186550e-03 -5.0752910e-02 1.4180198e-03)	9.9996030e+04	2.9380975e+02
7.86463e-05    	(-9.8475488e-04 -5.1226865e-02 1.5757380e-03)	9.9996567e+04	2.9380968e+02
7.90515e-05    	(-1.6849856e-03 -5.1653139e-02 5.9521585e-04)	9.9997014e+04	2.9381147e+02
7.94566e-05    	(-8.4737257e-04 -5.2046656e-02 1.1254323e-03)	9.9997178e+04	2.9381093e+02
7.98618e-05    	(-4.5204960e-04 -5.2197319e-02 1.4550686e-03)	9.9997844e+04	2.9381185e+02
8.02669e-05    	(-1.0919359e-03 -5.2146228e-02 2.0811070e-03)	9.9997882e+04	2.9381106e+02
8.0672e-05     	(-1.5552703e-03 -5.2717395e-02 9.1726456e-04)	9.9997857e+04	2.9380941e+02
8.10772e-05    	(-2.0390709e-03 -5.3220104e-02 1.1914155e-03)	9.9997717e+04	2.9380911e+02
8.14823e-05    	(-7.0795646e-04 -5.3332084e-02 1.6104358e-03)	9.9997813e+04	2.9380868e+02
8.18874e-05    	(-1.3078167e-03 -5.3042031e-02 1.6067758e-03)	9.9998126e+04	2.9380935e+02
8.22926e-05    	(-1.5195448e-03 -5.3272728e-02 1.8806238e-03)	9.9998037e+04	2.9380935e+02
8.26977e-05    	(-8.5038016e-04 -5.2930268e-02 1.9507061e-03)	9.9997079e+04	2.9380288e+02
8.31028e-05    	(-2.7849053e-04 -5.3652793e-02 2.6933480e-03)	9.9996656e+04	2.9380174e+02
8.3508e-05     	(-8.9479416e-04 -5.3612799e-02 2.3213684e-03)	9.9996928e+04	2.9380458e+02
8.39131e-05    	(-1.5905825e-04 -5.3216289e-02 1.8963826e-03)	9.9996602e+04	2.9380143e+02
8.43182e-05    	(1.0509195e-03 -5.3320593e-02 1.9079063e-03)	9.9996681e+04	2.9380255e+02
8.47234e-05    	(7.4589995e-04 -5.2516840e-02 1.9564630e-03)	9.9996361e+04	2.9380080e+02
8.51285e-05    	(1.1315994e-03 -5.2647572e-02 2.3941957e-03)	9.9995846e+04	2.9379958e+02
8.55336e-05    	(9.5737594e-04 -5.2615780e-02 2.0944790e-03)	9.9995930e+04	2.9379986e+02
8.59388e-05    	(3.5004595e-04 -5.3221094e-02 2.4760723e-03)	9.9995870e+04	2.9379801e+02
8.63439e-05    	(4.4485686e-04 -5.3652567e-02 2.5686089e-03)	9.9995837e+04	2.9380031e+02
8.6749e-05     	(8.1342943e-04 -5.4326918e-02 1.6452929e-03)	9.9996278e+04	2.9380039e+02
8.71542e-05    	(1.4969745e-03 -5.4736578e-02 7.3351189e-04)	9.9996747e+04	2.9380192e+02
8.75593e-05    	(1.1083072e-03 -5.5190118e-02 1.3975311e-03)	9.9997614e+04	2.9380312e+02
8.79644e-05    	(1.7198319e-03 -5.7155323e-02 1.7585670e-03)	9.9997106e+04	2.9379970e+02
8.83696e-05    	(2.8569972e-03 -5.8827546e-02 9.1612786e-04)	9.9997652e+04	2.9379920e+02
8.87747e-05    	(1.8607058e-03 -6.0871748e-02 2.9419520e-04)	9.9998922e+04	2.9380214e+02
8.91798e-05    	(1.9789600e-03 -6.2307618e-02 -3.3848180e-04)	1.0000072e+05	2.9380546e+02
8.9585e-05     	(2.3182652e-03 -6.3560473e-02 -8.8530635e-04)	1.0000271e+05	2.9381030e+02
8.99901e-05    	(2.0665032e-03 -6.4979276e-02 -1.5607110e-03)	1.0000355e+05	2.9380933e+02
9.03952e-05    	(1.3974189e-03 -6.6970062e-02 -1.2651625e-03)	1.0000489e+05	2.9381231e+02
9.08004e-05    	(1.0662490e-03 -6.8317039e-02 -1.5242956e-03)	1.0000655e+05	2.9381563e+02
9.12055e-05    	(2.0498204e-03 -6.9802892e-02 -2.0348298e-03)	1.0000855e+05	2.9381790e+02
9.16106e-05    	(2.5844861e-03 -7.1531946e-02 -2.1949883e-03)	1.0001008e+05	2.9382102e+02
9.20158e-05    	(1.9441743e-03 -7.2586027e-02 -2.4764165e-03)	1.0001155e+05	2.9382270e+02
9.24209e-05    	(1.5191939e-03 -7.4095728e-02 -2.0579237e-03)	1.0001286e+05	2.9382423e+02
9.2826e-05     	(1.8518706e-03 -7.5513230e-02 -2.3941347e-03)	1.0001394e+05	2.9382547e+02
9.32312e-05    	(2.0571631e-03 -7.6683218e-02 -2.5695031e-03)	1.0001534e+05	2.9382711e+02
9.36363e-05    	(1.4288157e-03 -7.7615220e-02 -3.0451227e-03)	1.0001662e+05	2.9383011e+02
9.40414e-05    	(1.2336895e-03 -7.8274304e-02 -2.8746262e-03)	1.0001732e+05	2.9382836e+02
9.44466e-05    	(1.4002826e-03 -7.9601020e-02 -1.1170355e-03)	1.0001749e+05	2.9382697e+02
9.48517e-05    	(7.1705725e-04 -7.9922800e-02 -1.3267941e-03)	1.0001844e+05	2.9382925e+02
9.52568e-05    	(1.0731856e-04 -8.0349390e-02 -2.0558485e-03)	1.0001860e+05	2.9382662e+02
9.5662e-05     	(1.7691219e-03 -8.1157717e-02 -5.7649659e-04)	1.0001835e+05	2.9382526e+02
9.60671e-05    	(7.8414783e-04 -8.0812990e-02 -3.4921021e-04)	1.0001880e+05	2.9382627e+02
9.64722e-05    	(-7.7879595e-04 -8.0656904e-02 -1.2744968e-03)	1.0001826e+05	2.9382391e+02
9.68774e-05    	(-1.0572531e-03 -8.1148108e-02 -1.5592105e-03)	1.0001785e+05	2.9382143e+02
9.72825e-05    	(-4.6548370e-04 -8.0683830e-02 7.2227486e-05)	1.0001759e+05	2.9382089e+02
9.76877e-05    	(-3.9340155e-04 -8.0253780e-02 5.6959703e-04)	1.0001771e+05	2.9382281e+02
9.80928e-05    	(-6.4026800e-04 -7.9618344e-02 -3.6778790e-04)	1.0001661e+05	2.9381880e+02
9.8498e-05     	(1.6791188e-04 -7.9639496e-02 -3.2216556e-04)	1.0001590e+05	2.9381726e+02
9.89031e-05    	(-6.7898601e-05 -7.8804893e-02 9.2926914e-04)	1.0001519e+05	2.9381350e+02
9.93083e-05    	(-1.0583591e-03 -7.8892800e-02 4.0328351e-04)	1.0001435e+05	2.9381398e+02
9.97134e-05    	(-3.3156955e-04 -7.8431490e-02 2.3961309e-04)	1.0001365e+05	2.9381128e+02
0.000100119    	(-1.1684697e-03 -7.7565927e-02 1.6025242e-03)	1.0001332e+05	2.9381129e+02
0.000100524    	(-8.0981728e-04 -7.7272783e-02 1.1113670e-03)	1.0001265e+05	2.9381058e+02
0.000100929    	(7.5898878e-05 -7.7104064e-02 1.0861366e-03)	1.0001123e+05	2.9380654e+02
0.000101334    	(7.9585896e-04 -7.7135308e-02 1.0204976e-03)	1.0001019e+05	2.9380384e+02
0.000101739    	(6.9939931e-04 -7.7184393e-02 1.6605286e-03)	1.0000956e+05	2.9380140e+02
0.000102144    	(-3.4730137e-04 -7.7304602e-02 2.0951706e-03)	1.0000925e+05	2.9380204e+02
0.000102549    	(-9.7185176e-04 -7.6832233e-02 1.8127639e-03)	1.0000848e+05	2.9380089e+02
0.000102955    	(-6.8674863e-04 -7.5967221e-02 1.2789843e-03)	1.0000838e+05	2.9380067e+02
0.00010336     	(3.6663848e-04 -7.5860742e-02 1.2624281e-03)	1.0000795e+05	2.9380213e+02
0.000103765    	(-3.4555728e-04 -7.4454389e-02 1.0710429e-03)	1.0000680e+05	2.9379662e+02
0.00010417     	(2.6048658e-05 -7.4767654e-02 5.9563526e-04)	1.0000568e+05	2.9379654e+02
0.000104575    	(2.6204204e-04 -7.4966360e-02 2.2434338e-03)	1.0000416e+05	2.9379207e+02
0.00010498     	(-9.7518187e-04 -7.4834415e-02 2.8179672e-03)	1.0000435e+05	2.9379292e+02
0.000105385    	(-1.6358719e-03 -7.5085406e-02 2.2666784e-03)	1.0000352e+05	2.9378917e+02
0.000105791    	(-2.1753604e-03 -7.4909243e-02 1.7158818e-03)	1.0000341e+05	2.9379143e+02
0.000106196    	(-1.6090836e-03 -7.4985801e-02 1.4546645e-03)	1.0000305e+05	2.9379138e+02
0.000106601    	(-1.8491481e-03 -7.4765898e-02 1.6967588e-03)	1.0000237e+05	2.9378822e+02
0.000107006    	(-1.0238760e-03 -7.5741997e-02 2.0752411e-03)	1.0000157e+05	2.9378643e+02
0.000107411    	(-3.2947090e-04 -7.6389548e-02 2.6341412e-03)	1.0000126e+05	2.9378741e+02
0.000107816    	(-1.3669254e-03 -7.6739637e-02 2.3143690e-03)	1.0000212e+05	2.9378826e+02
0.000108222    	(-5.9124985e-04 -7.7868823e-02 1.7883551e-03)	1.0000199e+05	2.9378796e+02
0.000108627    	(-1.3360542e-03 -7.8420648e-02 2.4429011e-03)	1.0000279e+05	2.9378954e+02
0.000109032    	(-1.8618433e-03 -7.9750231e-02 2.8666320e-03)	1.0000331e+05	2.9379135e+02
0.000109437    	(-1.4250502e-03 -8.0371157e-02 2.3703140e-03)	1.0000382e+05	2.9379233e+02
0.000109842    	(-1.2877096e-03 -8.2099745e-02 1.8686454e-03)	1.0000448e+05	2.9379326e+02
0.000110247    	(-9.1354927e-04 -8.2971411e-02 2.0481812e-03)	1.0000559e+05	2.9379438e+02
0.000110652    	(-1.1573733e-03 -8.4574167e-02 2.3646446e-03)	1.0000687e+05	2.9379813e+02
0.000111058    	(-1.1497379e-03 -8.5736527e-02 2.7518743e-03)	1.0000770e+05	2.9379801e+02
0.000111463    	(-1.0801267e-03 -8.7323945e-02 3.1891079e-03)	1.0000931e+05	2.9380324e+02
0.000111868    	(3.7777495e-05 -8.8416129e-02 2.8364128e-03)	1.0001005e+05	2.9380261e+02
0.000112273    	(4.5681792e-05 -9.0106816e-02 2.3437518e-03)	1.0001132e+05	2.9380409e+02
0.000112678    	(9.0567698e-04 -9.1934648e-02 1.6060243e-03)	1.0001213e+05	2.9380537e+02
0.000113083    	(1.2297181e-03 -9.2756510e-02 2.2030283e-03)	1.0001360e+05	2.9380786e+02
0.000113488    	(1.4162839e-03 -9.4169058e-02 2.1636738e-03)	1.0001475e+05	2.9380902e+02
0.000113894    	(1.3342886e-03 -9.4847596e-02 1.4048614e-03)	1.0001545e+05	2.9380910e+02
0.000114299    	(1.0274986e-03 -9.6300444e-02 1.3561461e-03)	1.0001581e+05	2.9380778e+02
0.000114704    	(1.9102962e-03 -9.7326794e-02 1.8453569e-03)	1.0001597e+05	2.9380751e+02
0.000115109    	(1.3292451e-03 -9.7774611e-02 1.5075700e-03)	1.0001733e+05	2.9381033e+02
0.000115514    	(2.0887778e-03 -9.8313241e-02 9.0955980e-04)	1.0001714e+05	2.9380961e+02
0.000115919    	(1.4598249e-03 -9.8413499e-02 1.7551495e-04)	1.0001722e+05	2.9380760e+02
0.000116325    	(4.6085757e-04 -9.9039749e-02 2.5387712e-04)	1.0001727e+05	2.9380795e+02
0.00011673     	(2.2714032e-04 -9.8680101e-02 -7.4038884e-04)	1.0001699e+05	2.9380626e+02
0.000117135    	(1.8094942e-04 -9.8807070e-02 -1.0941270e-03)	1.0001729e+05	2.9380706e+02
0.00011754     	(9.3592904e-04 -9.8640798e-02 -1.6718573e-03)	1.0001631e+05	2.9380415e+02
0.000117945    	(1.0892547e-03 -9.8252802e-02 -5.7460575e-04)	1.0001573e+05	2.9380299e+02
0.00011835     	(6.4575173e-04 -9.8228608e-02 -1.0702525e-03)	1.0001540e+05	2.9380096e+02
0.000118755    	(-1.4035454e-03 -9.7577223e-02 -2.1542374e-03)	1.0001479e+05	2.9380217e+02
0.000119161    	(-2.1134796e-03 -9.7076542e-02 -1.3146307e-03)	1.0001374e+05	2.9379610e+02
0.000119566    	(-4.4288556e-04 -9.7039951e-02 -7.1820530e-04)	1.0001276e+05	2.9379615e+02
0.000119971    	(-3.9928012e-04 -9.6557491e-02 -2.3703766e-03)	1.0001202e+05	2.9379572e+02
0.000120376    	(-3.9896748e-04 -9.6725961e-02 -2.5986612e-03)	1.0001062e+05	2.9379210e+02
0.000120781    	(-1.6107866e-03 -9.6039489e-02 -1.7585936e-03)	1.0000997e+05	2.9379004e+02
0.000121186    	(-2.4952311e-03 -9.5494669e-02 -1.1368369e-03)	1.0000922e+05	2.9378911e+02
0.000121591    	(-3.2778451e-03 -9.4986122e-02 -2.1361528e-03)	1.0000828e+05	2.9378732e+02
0.000121997    	(-2.0036184e-03 -9.4531502e-02 -1.9485736e-03)	1.0000730e+05	2.9378391e+02
0.000122402    	(-1.4506482e-03 -9.3850511e-02 -1.3097011e-03)	1.0000637e+05	2.9378310e+02
0.000122807    	(-1.7527448e-03 -9.3786165e-02 -2.3012965e-03)	1.0000515e+05	2.9377927e+02
0.000123212    	(-1.7341118e-03 -9.3832647e-02 -2.7951418e-03)	1.0000419e+05	2.9377878e+02
0.000123617    	(-1.0435332e-03 -9.3653769e-02 -1.6422139e-03)	1.0000312e+05	2.9377428e+02
0.000124022    	(-7.0151445e-04 -9.4170192e-02 -9.5359196e-04)	1.0000192e+05	2.9377425e+02
0.000124428    	(-1.3382500e-03 -9.3759138e-02 -2.5789645e-03)	1.0000218e+05	2.9377756e+02
0.000124833    	(-1.1974225e-03 -9.2655464e-02 -2.8195132e-03)	1.0000146e+05	2.9377428e+02
0.000125238    	(-7.9046849e-05 -9.2949015e-02 -1.6856343e-03)	9.9999504e+04	2.9376890e+02
0.000125643    	(2.8403214e-06 -9.2730435e-02 -7.8451640e-04)	9.9998869e+04	2.9376780e+02
0.000126048    	(-1.8412427e-04 -9.2453284e-02 -9.7703081e-04)	9.9998210e+04	2.9376866e+02
0.000126453    	(-4.2516594e-05 -9.2959629e-02 -2.6725075e-03)	9.9997314e+04	2.9376394e+02
0.000126858    	(-2.4299318e-04 -9.2678626e-02 -1.9719291e-03)	9.9997015e+04	2.9376584e+02
0.000127264    	(1.9084662e-04 -9.2032667e-02 -6.5513757e-04)	9.9996368e+04	2.9376399e+02
0.000127669    	(2.2160634e-04 -9.1770006e-02 -1.0193187e-03)	9.9995383e+04	2.9376357e+02
0.000128074    	(-7.9943485e-04 -9.1771470e-02 -1.2005584e-03)	9.9994695e+04	2.9376081e+02
0.000128479    	(-5.3508014e-04 -9.1275182e-02 6.5963508e-05)	9.9993344e+04	2.9375891e+02
0.000128884    	(5.4801131e-04 -9.1285509e-02 5.6407141e-04)	9.9992846e+04	2.9375826e+02
0.000129289    	(1.8172049e-04 -9.1011716e-02 -3.8330444e-04)	9.9992222e+04	2.9375608e+02
0.000129695    	(-1.1682099e-03 -9.0812525e-02 -1.5912535e-04)	9.9992010e+04	2.9375932e+02
0.0001301      	(-1.3717037e-04 -9.0109036e-02 -2.5288421e-04)	9.9991255e+04	2.9375620e+02
0.000130505    	(1.2255532e-04 -9.0356973e-02 8.1036623e-04)	9.9989813e+04	2.9375185e+02
0.00013091     	(6.1059902e-04 -9.0743502e-02 1.4156623e-03)	9.9989578e+04	2.9375133e+02
0.000131315    	(3.4587472e-04 -9.0836709e-02 2.0337460e-03)	9.9988849e+04	2.9374990e+02
0.00013172     	(5.1605813e-04 -9.1294610e-02 1.1293186e-03)	9.9988356e+04	2.9374852e+02
0.000132125    	(1.0661408e-03 -9.1733249e-02 1.7648522e-03)	9.9988052e+04	2.9374874e+02
0.000132531    	(1.6614897e-04 -9.2099017e-02 1.3983086e-03)	9.9988289e+04	2.9375157e+02
0.000132936    	(1.3186638e-04 -9.2271803e-02 1.9753254e-03)	9.9988631e+04	2.9375244e+02
0.000133341    	(-1.4846096e-04 -9.2819778e-02 2.6652497e-03)	9.9987726e+04	2.9374708e+02
0.000133746    	(1.4762451e-03 -9.3782074e-02 2.2296016e-03)	9.9987925e+04	2.9374758e+02