# Region type : patch inlet
# Faces  :     778
# Area   :     6.2874094e-05
# Time         	average(U)	average(p)	average(T)	average(rho)
0.088          	(1.1052736e+01 6.4988767e-01 -9.4282587e+00)	1.9957006e+05	2.9381921e+02	2.3609035e+00
0.0880001      	(1.1134671e+01 6.5221917e-01 -9.4939224e+00)	1.9956632e+05	2.9381763e+02	2.3608719e+00
0.0880005      	(1.1392818e+01 6.5901010e-01 -9.6588889e+00)	1.9955724e+05	2.9381380e+02	2.3607951e+00
0.0880009      	(1.1594140e+01 6.4083139e-01 -9.7954813e+00)	1.9955257e+05	2.9381184e+02	2.3607556e+00
0.0880013      	(1.1754758e+01 5.7668750e-01 -9.8891485e+00)	1.9955317e+05	2.9381208e+02	2.3607607e+00
0.0880016      	(1.1848540e+01 5.2747685e-01 -9.9101010e+00)	1.9955943e+05	2.9381472e+02	2.3608136e+00
0.088002       	(1.1873227e+01 4.7644798e-01 -9.8835396e+00)	1.9957157e+05	2.9381983e+02	2.3609162e+00
0.0880024      	(1.1823201e+01 4.2979799e-01 -9.8093457e+00)	1.9958924e+05	2.9382727e+02	2.3610655e+00
0.0880028      	(1.1693605e+01 3.8675334e-01 -9.6703723e+00)	1.9961201e+05	2.9383686e+02	2.3612580e+00
0.0880032      	(1.1480231e+01 3.3585000e-01 -9.4472349e+00)	1.9964004e+05	2.9384866e+02	2.3614950e+00
0.0880035      	(1.1164382e+01 2.9781201e-01 -9.1501914e+00)	1.9967287e+05	2.9386248e+02	2.3617725e+00
0.0880039      	(1.0735522e+01 2.4898726e-01 -8.7846595e+00)	1.9970882e+05	2.9387761e+02	2.3620763e+00
0.0880043      	(1.0230578e+01 2.0923316e-01 -8.3357276e+00)	1.9974568e+05	2.9389312e+02	2.3623878e+00
0.0880047      	(9.6540515e+00 1.7007464e-01 -7.8225391e+00)	1.9978090e+05	2.9390793e+02	2.3626854e+00
0.0880051      	(9.0193109e+00 1.3171501e-01 -7.2720860e+00)	1.9981145e+05	2.9392077e+02	2.3629435e+00
0.0880055      	(8.3646864e+00 9.9766988e-02 -6.6904376e+00)	1.9983492e+05	2.9393064e+02	2.3631417e+00
0.0880058      	(7.6982986e+00 7.6977716e-02 -6.1087113e+00)	1.9984982e+05	2.9393690e+02	2.3632676e+00
0.0880062      	(7.0707675e+00 6.9878888e-02 -5.5358255e+00)	1.9985634e+05	2.9393963e+02	2.3633226e+00
0.0880066      	(6.4393427e+00 5.7181228e-02 -5.0153165e+00)	1.9985588e+05	2.9393943e+02	2.3633187e+00
0.088007       	(5.8137226e+00 3.3540303e-02 -4.5255972e+00)	1.9985051e+05	2.9393717e+02	2.3632733e+00
0.0880074      	(5.2524653e+00 7.0788613e-04 -4.0691014e+00)	1.9984229e+05	2.9393370e+02	2.3632037e+00
0.0880077      	(4.7268104e+00 -3.7854115e-02 -3.6659381e+00)	1.9983293e+05	2.9392976e+02	2.3631246e+00
0.0880081      	(4.2676224e+00 -9.0496992e-02 -3.3119841e+00)	1.9982345e+05	2.9392577e+02	2.3630445e+00
0.0880085      	(3.8723562e+00 -1.3522720e-01 -3.0030849e+00)	1.9981456e+05	2.9392203e+02	2.3629693e+00
0.0880089      	(3.5299493e+00 -1.8679678e-01 -2.7533966e+00)	1.9980669e+05	2.9391871e+02	2.3629027e+00
0.0880093      	(3.2541205e+00 -2.4242509e-01 -2.5421610e+00)	1.9980031e+05	2.9391602e+02	2.3628488e+00
0.0880096      	(3.0203987e+00 -2.7441468e-01 -2.3782752e+00)	1.9979568e+05	2.9391407e+02	2.3628097e+00
0.08801        	(2.8306970e+00 -3.0738786e-01 -2.2449117e+00)	1.9979317e+05	2.9391301e+02	2.3627884e+00
0.0880104      	(2.6813812e+00 -3.5467619e-01 -2.1207810e+00)	1.9979329e+05	2.9391305e+02	2.3627893e+00
0.0880108      	(2.5299214e+00 -3.5098459e-01 -2.0280432e+00)	1.9979645e+05	2.9391438e+02	2.3628161e+00
0.0880112      	(2.3945453e+00 -3.4870183e-01 -1.9347902e+00)	1.9980287e+05	2.9391708e+02	2.3628703e+00
0.0880115      	(2.2640523e+00 -3.4559165e-01 -1.8504971e+00)	1.9981242e+05	2.9392110e+02	2.3629510e+00
0.0880119      	(2.1344622e+00 -3.2166306e-01 -1.7797186e+00)	1.9982458e+05	2.9392622e+02	2.3630537e+00
0.0880123      	(2.0108875e+00 -3.1553169e-01 -1.7154294e+00)	1.9983896e+05	2.9393227e+02	2.3631753e+00
0.0880127      	(1.9189557e+00 -3.1011181e-01 -1.6565948e+00)	1.9985507e+05	2.9393905e+02	2.3633115e+00
0.0880131      	(1.8472021e+00 -2.8135947e-01 -1.6291201e+00)	1.9987266e+05	2.9394646e+02	2.3634602e+00
0.0880134      	(1.8235965e+00 -2.6613482e-01 -1.6219471e+00)	1.9989104e+05	2.9395419e+02	2.3636155e+00
0.0880138      	(1.8535942e+00 -2.3875136e-01 -1.6394356e+00)	1.9990971e+05	2.9396204e+02	2.3637733e+00
0.0880142      	(1.9383212e+00 -2.2589622e-01 -1.6953380e+00)	1.9992785e+05	2.9396968e+02	2.3639266e+00
0.0880146      	(2.0961608e+00 -1.9799416e-01 -1.7908247e+00)	1.9994439e+05	2.9397663e+02	2.3640663e+00
0.088015       	(2.3212798e+00 -2.1419716e-01 -1.9360719e+00)	1.9995783e+05	2.9398228e+02	2.3641798e+00
0.0880154      	(2.5490062e+00 -1.4866171e-01 -2.1854858e+00)	1.9996628e+05	2.9398584e+02	2.3642513e+00
0.0880157      	(2.8036700e+00 -1.8130154e-01 -2.5344410e+00)	1.9996825e+05	2.9398667e+02	2.3642679e+00
0.0880161      	(3.1436331e+00 -1.6164712e-01 -2.9118953e+00)	1.9996326e+05	2.9398457e+02	2.3642258e+00
0.0880165      	(3.5445318e+00 -1.3046329e-01 -3.2915775e+00)	1.9995170e+05	2.9397971e+02	2.3641281e+00
0.0880169      	(3.9814828e+00 -5.3628727e-02 -3.6896928e+00)	1.9993483e+05	2.9397262e+02	2.3639856e+00
0.0880173      	(4.4527774e+00 2.4763449e-02 -4.1162194e+00)	1.9991379e+05	2.9396378e+02	2.3638079e+00
0.0880176      	(4.9502606e+00 9.3751373e-02 -4.5440087e+00)	1.9988953e+05	2.9395359e+02	2.3636030e+00
0.088018       	(5.4586211e+00 1.6856860e-01 -4.9716583e+00)	1.9986301e+05	2.9394244e+02	2.3633790e+00
0.0880184      	(5.9636626e+00 2.3493804e-01 -5.3893372e+00)	1.9983517e+05	2.9393073e+02	2.3631437e+00
0.0880188      	(6.4501764e+00 2.9938352e-01 -5.7881186e+00)	1.9980696e+05	2.9391887e+02	2.3629055e+00
0.0880192      	(6.9077169e+00 3.5976307e-01 -6.1615456e+00)	1.9977915e+05	2.9390717e+02	2.3626704e+00
0.0880195      	(7.3322270e+00 4.1569095e-01 -6.5056406e+00)	1.9975239e+05	2.9389592e+02	2.3624443e+00
0.0880199      	(7.7267815e+00 4.6771601e-01 -6.8184541e+00)	1.9972716e+05	2.9388530e+02	2.3622311e+00
0.0880203      	(8.0820936e+00 5.2015325e-01 -7.1132103e+00)	1.9970362e+05	2.9387540e+02	2.3620322e+00
0.0880207      	(8.4233632e+00 5.6940504e-01 -7.3745368e+00)	1.9968194e+05	2.9386628e+02	2.3618490e+00
0.0880211      	(8.7386462e+00 6.1665851e-01 -7.6180496e+00)	1.9966231e+05	2.9385802e+02	2.3616831e+00
0.0880214      	(9.0379586e+00 6.5716379e-01 -7.8465755e+00)	1.9964479e+05	2.9385064e+02	2.3615350e+00
0.0880218      	(9.3191315e+00 6.9439068e-01 -8.0541861e+00)	1.9962941e+05	2.9384417e+02	2.3614050e+00
0.0880222      	(9.5785512e+00 7.3034770e-01 -8.2453575e+00)	1.9961628e+05	2.9383863e+02	2.3612939e+00
0.0880226      	(9.8048869e+00 7.4936826e-01 -8.4303749e+00)	1.9960616e+05	2.9383437e+02	2.3612084e+00
0.088023       	(9.9998373e+00 7.5929835e-01 -8.5974907e+00)	1.9959955e+05	2.9383158e+02	2.3611525e+00
0.0880233      	(1.0173634e+01 7.6056083e-01 -8.7259691e+00)	1.9959722e+05	2.9383060e+02	2.3611327e+00
0.0880237      	(1.0283992e+01 7.3539960e-01 -8.8327948e+00)	1.9960002e+05	2.9383178e+02	2.3611564e+00
0.0880241      	(1.0363429e+01 6.8820242e-01 -8.8997593e+00)	1.9960782e+05	2.9383506e+02	2.3612224e+00
0.0880245      	(1.0405662e+01 5.9033745e-01 -8.9257848e+00)	1.9962058e+05	2.9384043e+02	2.3613302e+00
0.0880249      	(1.0376430e+01 5.0201413e-01 -8.8828835e+00)	1.9963883e+05	2.9384812e+02	2.3614845e+00
0.0880253      	(1.0279562e+01 3.9712367e-01 -8.7831481e+00)	1.9966223e+05	2.9385797e+02	2.3616823e+00
0.0880256      	(1.0091676e+01 3.3820651e-01 -8.6354482e+00)	1.9969015e+05	2.9386972e+02	2.3619183e+00
0.088026       	(9.8184397e+00 2.6283061e-01 -8.4316606e+00)	1.9972173e+05	2.9388301e+02	2.3621852e+00
0.0880264      	(9.4609138e+00 2.0914608e-01 -8.1639604e+00)	1.9975522e+05	2.9389711e+02	2.3624683e+00
0.0880268      	(9.0239971e+00 1.4879899e-01 -7.8519695e+00)	1.9978824e+05	2.9391100e+02	2.3627473e+00
0.0880272      	(8.5620529e+00 1.2584578e-01 -7.4678032e+00)	1.9981812e+05	2.9392357e+02	2.3629998e+00
0.0880275      	(8.0710899e+00 1.0114885e-01 -7.0480860e+00)	1.9984231e+05	2.9393374e+02	2.3632041e+00
0.0880279      	(7.5731670e+00 7.5974782e-02 -6.6286279e+00)	1.9985886e+05	2.9394070e+02	2.3633440e+00
0.0880283      	(7.0716335e+00 5.1984235e-02 -6.2034787e+00)	1.9986729e+05	2.9394424e+02	2.3634152e+00
0.0880287      	(6.5708109e+00 5.0092181e-02 -5.7814976e+00)	1.9986861e+05	2.9394479e+02	2.3634263e+00
0.0880291      	(6.1378439e+00 4.9994366e-02 -5.3365620e+00)	1.9986418e+05	2.9394293e+02	2.3633888e+00
0.0880294      	(5.7234678e+00 3.5216064e-02 -4.9179929e+00)	1.9985545e+05	2.9393925e+02	2.3633150e+00
0.0880298      	(5.3537898e+00 -1.2756205e-02 -4.4939555e+00)	1.9984399e+05	2.9393443e+02	2.3632182e+00
0.0880302      	(5.0054762e+00 -6.6513248e-02 -4.1172756e+00)	1.9983129e+05	2.9392909e+02	2.3631108e+00
0.0880306      	(4.6727787e+00 -1.3708940e-01 -3.8097682e+00)	1.9981837e+05	2.9392364e+02	2.3630016e+00
0.088031       	(4.3755355e+00 -2.1811355e-01 -3.5496720e+00)	1.9980594e+05	2.9391841e+02	2.3628965e+00
0.0880313      	(4.1161297e+00 -3.0111894e-01 -3.3192349e+00)	1.9979462e+05	2.9391365e+02	2.3628009e+00
0.0880317      	(3.8793922e+00 -3.5327773e-01 -3.1263993e+00)	1.9978481e+05	2.9390951e+02	2.3627179e+00
0.0880321      	(3.6645833e+00 -4.1558564e-01 -2.9372656e+00)	1.9977698e+05	2.9390621e+02	2.3626517e+00
0.0880325      	(3.4675744e+00 -4.8746723e-01 -2.7484539e+00)	1.9977169e+05	2.9390398e+02	2.3626069e+00
0.0880329      	(3.2627842e+00 -5.1865563e-01 -2.5700639e+00)	1.9976939e+05	2.9390301e+02	2.3625875e+00
0.0880332      	(3.0522021e+00 -5.2892744e-01 -2.4010976e+00)	1.9977054e+05	2.9390348e+02	2.3625971e+00
0.0880336      	(2.8413840e+00 -5.5532634e-01 -2.2334795e+00)	1.9977534e+05	2.9390550e+02	2.3626377e+00
0.088034       	(2.6170123e+00 -5.4333226e-01 -2.0775242e+00)	1.9978379e+05	2.9390906e+02	2.3627091e+00
0.0880344      	(2.3948392e+00 -5.2689396e-01 -1.9261575e+00)	1.9979584e+05	2.9391413e+02	2.3628109e+00
0.0880348      	(2.2023720e+00 -5.1269021e-01 -1.7921638e+00)	1.9981075e+05	2.9392040e+02	2.3629370e+00
0.0880352      	(2.0449517e+00 -4.8644675e-01 -1.6903345e+00)	1.9982779e+05	2.9392757e+02	2.3630810e+00
0.0880355      	(1.9075819e+00 -4.5852310e-01 -1.6219627e+00)	1.9984676e+05	2.9393556e+02	2.3632413e+00
0.0880359      	(1.8152057e+00 -4.1608749e-01 -1.5776590e+00)	1.9986724e+05	2.9394418e+02	2.3634144e+00
0.0880363      	(1.7680227e+00 -4.0550012e-01 -1.5852067e+00)	1.9988812e+05	2.9395297e+02	2.3635909e+00
0.0880367      	(1.7891789e+00 -3.8346825e-01 -1.6428609e+00)	1.9990834e+05	2.9396147e+02	2.3637617e+00
0.0880371      	(1.8891972e+00 -3.4907383e-01 -1.7485176e+00)	1.9992676e+05	2.9396922e+02	2.3639174e+00
0.0880374      	(2.0911496e+00 -2.2467822e-01 -1.8830212e+00)	1.9994185e+05	2.9397557e+02	2.3640448e+00
0.0880378      	(2.4001818e+00 -1.0623059e-01 -2.0337089e+00)	1.9995209e+05	2.9397987e+02	2.3641314e+00
0.0880382      	(2.7459013e+00 -1.2351958e-02 -2.2799291e+00)	1.9995567e+05	2.9398138e+02	2.3641616e+00
0.0880386      	(3.2081676e+00 -2.1620024e-02 -2.5718441e+00)	1.9995183e+05	2.9397977e+02	2.3641292e+00
0.088039       	(3.7061390e+00 -8.1033784e-02 -2.9047761e+00)	1.9994105e+05	2.9397524e+02	2.3640381e+00
0.0880393      	(4.1949175e+00 -5.4544051e-02 -3.2769909e+00)	1.9992433e+05	2.9396821e+02	2.3638969e+00
0.0880397      	(4.6941774e+00 1.6383517e-02 -3.6907080e+00)	1.9990294e+05	2.9395922e+02	2.3637162e+00
0.0880401      	(5.1997358e+00 8.7285172e-02 -4.1087913e+00)	1.9987801e+05	2.9394874e+02	2.3635057e+00
0.0880405      	(5.6860093e+00 1.6962961e-01 -4.5338373e+00)	1.9985062e+05	2.9393723e+02	2.3632743e+00
0.0880409      	(6.1618499e+00 2.4432689e-01 -4.9554037e+00)	1.9982180e+05	2.9392511e+02	2.3630308e+00
0.0880412      	(6.6133848e+00 3.1475271e-01 -5.3781302e+00)	1.9979256e+05	2.9391281e+02	2.3627837e+00
0.0880416      	(7.0382304e+00 3.7955385e-01 -5.7906224e+00)	1.9976383e+05	2.9390073e+02	2.3625410e+00
0.088042       	(7.4486036e+00 4.4301787e-01 -6.1788061e+00)	1.9973649e+05	2.9388922e+02	2.3623099e+00
0.0880424      	(7.8391465e+00 4.9980203e-01 -6.5491797e+00)	1.9971106e+05	2.9387852e+02	2.3620950e+00
0.0880428      	(8.2049007e+00 5.4793778e-01 -6.9102616e+00)	1.9968788e+05	2.9386877e+02	2.3618991e+00
0.0880431      	(8.5485077e+00 5.8885452e-01 -7.2491775e+00)	1.9966718e+05	2.9386005e+02	2.3617241e+00
0.0880435      	(8.8728507e+00 6.1838331e-01 -7.5768192e+00)	1.9964892e+05	2.9385236e+02	2.3615697e+00
0.0880439      	(9.1759422e+00 6.4132983e-01 -7.8911073e+00)	1.9963303e+05	2.9384568e+02	2.3614355e+00
0.0880443      	(9.4569027e+00 6.5921110e-01 -8.1862766e+00)	1.9961961e+05	2.9384002e+02	2.3613220e+00
0.0880447      	(9.7050953e+00 6.6798496e-01 -8.4582201e+00)	1.9960925e+05	2.9383566e+02	2.3612344e+00
0.0880451      	(9.9220407e+00 6.6656317e-01 -8.7030440e+00)	1.9960204e+05	2.9383262e+02	2.3611734e+00
0.0880454      	(1.0105523e+01 6.6056083e-01 -8.9339412e+00)	1.9959796e+05	2.9383090e+02	2.3611389e+00
0.0880458      	(1.0249625e+01 6.3396801e-01 -9.1274366e+00)	1.9959737e+05	2.9383065e+02	2.3611339e+00
0.0880462      	(1.0348041e+01 5.9796889e-01 -9.2729144e+00)	1.9960074e+05	2.9383207e+02	2.3611624e+00
0.0880466      	(1.0383439e+01 5.3536168e-01 -9.3718478e+00)	1.9960881e+05	2.9383546e+02	2.3612306e+00
0.088047       	(1.0335572e+01 4.4287870e-01 -9.4289088e+00)	1.9962192e+05	2.9384098e+02	2.3613414e+00
0.0880473      	(1.0214305e+01 3.3132856e-01 -9.4088860e+00)	1.9963996e+05	2.9384858e+02	2.3614939e+00
0.0880477      	(1.0019265e+01 2.5665450e-01 -9.3065541e+00)	1.9966283e+05	2.9385821e+02	2.3616872e+00
0.0880481      	(9.7311150e+00 2.2566934e-01 -9.1436003e+00)	1.9968953e+05	2.9386944e+02	2.3619129e+00
0.0880485      	(9.3758921e+00 1.9178093e-01 -8.9127611e+00)	1.9971776e+05	2.9388133e+02	2.3621515e+00
0.0880489      	(8.9625080e+00 1.6387018e-01 -8.6277876e+00)	1.9974543e+05	2.9389297e+02	2.3623854e+00
0.0880492      	(8.5067433e+00 1.2526672e-01 -8.2998765e+00)	1.9977081e+05	2.9390365e+02	2.3625999e+00
0.0880496      	(8.0119413e+00 1.0728286e-01 -7.9911469e+00)	1.9979217e+05	2.9391264e+02	2.3627804e+00
0.08805        	(7.4924634e+00 7.9705108e-02 -7.6136157e+00)	1.9980879e+05	2.9391964e+02	2.3629209e+00
0.0880504      	(6.9473037e+00 3.5017637e-02 -7.2070484e+00)	1.9982119e+05	2.9392486e+02	2.3630257e+00
0.0880508      	(6.4868285e+00 2.3574985e-02 -6.7157332e+00)	1.9983011e+05	2.9392861e+02	2.3631010e+00
0.0880511      	(6.0900367e+00 2.0757705e-02 -6.2404246e+00)	1.9983517e+05	2.9393074e+02	2.3631438e+00
0.0880515      	(5.7595268e+00 1.4207735e-03 -5.7846146e+00)	1.9983614e+05	2.9393114e+02	2.3631520e+00
0.0880519      	(5.5147091e+00 -1.3896123e-02 -5.3749174e+00)	1.9983303e+05	2.9392983e+02	2.3631256e+00
0.0880523      	(5.2943987e+00 -3.1286655e-02 -5.0136877e+00)	1.9982632e+05	2.9392701e+02	2.3630690e+00
0.0880527      	(5.1245531e+00 -4.8357016e-02 -4.6935940e+00)	1.9981698e+05	2.9392307e+02	2.3629900e+00
0.088053       	(4.9741649e+00 -7.5699331e-02 -4.4155449e+00)	1.9980601e+05	2.9391845e+02	2.3628973e+00
0.0880534      	(4.8385396e+00 -1.0441571e-01 -4.1871903e+00)	1.9979421e+05	2.9391348e+02	2.3627975e+00
0.0880538      	(4.7338784e+00 -1.4214577e-01 -3.9772930e+00)	1.9978225e+05	2.9390844e+02	2.3626963e+00
0.0880542      	(4.6265623e+00 -1.9368233e-01 -3.7861197e+00)	1.9977099e+05	2.9390370e+02	2.3626012e+00
0.0880546      	(4.5116049e+00 -2.4313221e-01 -3.6113175e+00)	1.9976120e+05	2.9389958e+02	2.3625184e+00
0.088055       	(4.3741076e+00 -2.9063852e-01 -3.4637776e+00)	1.9975340e+05	2.9389628e+02	2.3624524e+00
0.0880553      	(4.2164250e+00 -3.1393016e-01 -3.3166475e+00)	1.9974862e+05	2.9389427e+02	2.3624120e+00
0.0880557      	(4.0511161e+00 -3.5062547e-01 -3.1612446e+00)	1.9974743e+05	2.9389376e+02	2.3624019e+00
0.0880561      	(3.8521477e+00 -3.5763055e-01 -3.0108377e+00)	1.9975043e+05	2.9389502e+02	2.3624271e+00
0.0880565      	(3.6462620e+00 -3.7430491e-01 -2.8509725e+00)	1.9975763e+05	2.9389805e+02	2.3624880e+00
0.0880569      	(3.4376840e+00 -3.8223949e-01 -2.6870356e+00)	1.9976880e+05	2.9390275e+02	2.3625824e+00
0.0880572      	(3.2357053e+00 -3.8665395e-01 -2.5316792e+00)	1.9978347e+05	2.9390892e+02	2.3627064e+00
0.0880576      	(3.0641533e+00 -3.5832278e-01 -2.4031768e+00)	1.9980089e+05	2.9391625e+02	2.3628536e+00
0.088058       	(2.9341641e+00 -3.3415797e-01 -2.3050004e+00)	1.9982051e+05	2.9392451e+02	2.3630194e+00
0.0880584      	(2.8288460e+00 -3.1423883e-01 -2.2565361e+00)	1.9984204e+05	2.9393357e+02	2.3632014e+00
0.0880588      	(2.7813858e+00 -2.8385612e-01 -2.2535830e+00)	1.9986440e+05	2.9394298e+02	2.3633904e+00
0.0880591      	(2.7870177e+00 -2.7419496e-01 -2.3126992e+00)	1.9988640e+05	2.9395224e+02	2.3635763e+00
0.0880595      	(2.8993257e+00 -2.6745633e-01 -2.4270911e+00)	1.9990696e+05	2.9396089e+02	2.3637501e+00
0.0880599      	(3.1054677e+00 -2.5270092e-01 -2.5891429e+00)	1.9992514e+05	2.9396854e+02	2.3639037e+00
0.0880603      	(3.3820989e+00 -1.8208092e-01 -2.7964427e+00)	1.9993943e+05	2.9397455e+02	2.3640245e+00
0.0880607      	(3.7120064e+00 -1.4116477e-01 -3.0511799e+00)	1.9994761e+05	2.9397799e+02	2.3640936e+00
0.088061       	(4.1043071e+00 -1.3787509e-01 -3.3459482e+00)	1.9994803e+05	2.9397817e+02	2.3640971e+00
0.0880614      	(4.5485511e+00 -1.2953853e-01 -3.6937321e+00)	1.9993962e+05	2.9397464e+02	2.3640261e+00
0.0880618      	(4.9929611e+00 -1.1721912e-01 -4.0511662e+00)	1.9992265e+05	2.9396751e+02	2.3638828e+00
0.0880622      	(5.4433211e+00 -7.0867143e-02 -4.3885897e+00)	1.9989883e+05	2.9395749e+02	2.3636815e+00
0.0880626      	(5.8656393e+00 2.0673530e-02 -4.7290437e+00)	1.9987065e+05	2.9394565e+02	2.3634435e+00
0.0880629      	(6.2617500e+00 1.1953671e-01 -5.0534780e+00)	1.9983981e+05	2.9393268e+02	2.3631830e+00
0.0880633      	(6.6168820e+00 2.1914550e-01 -5.3572034e+00)	1.9980767e+05	2.9391917e+02	2.3629114e+00
0.0880637      	(6.9426163e+00 3.1959675e-01 -5.6386747e+00)	1.9977533e+05	2.9390557e+02	2.3626381e+00
0.0880641      	(7.2417019e+00 4.1490273e-01 -5.8985562e+00)	1.9974381e+05	2.9389231e+02	2.3623718e+00
0.0880645      	(7.5182173e+00 5.0882994e-01 -6.1356834e+00)	1.9971401e+05	2.9387977e+02	2.3621200e+00
0.0880648      	(7.7734537e+00 5.9838291e-01 -6.3463665e+00)	1.9968680e+05	2.9386831e+02	2.3618899e+00
0.0880652      	(8.0100041e+00 6.8069872e-01 -6.5493047e+00)	1.9966253e+05	2.9385810e+02	2.3616848e+00
0.0880656      	(8.2459413e+00 7.5730143e-01 -6.7407367e+00)	1.9964158e+05	2.9384927e+02	2.3615077e+00
0.088066       	(8.4654950e+00 8.2097150e-01 -6.9347263e+00)	1.9962407e+05	2.9384189e+02	2.3613596e+00
0.0880664      	(8.6845053e+00 8.7078344e-01 -7.1135087e+00)	1.9961025e+05	2.9383607e+02	2.3612428e+00
0.0880668      	(8.8839462e+00 9.0985973e-01 -7.2943279e+00)	1.9960027e+05	2.9383187e+02	2.3611584e+00
0.0880671      	(9.0764215e+00 9.3752900e-01 -7.4453858e+00)	1.9959442e+05	2.9382940e+02	2.3611089e+00
0.0880675      	(9.2312740e+00 9.5127671e-01 -7.5850817e+00)	1.9959307e+05	2.9382882e+02	2.3610974e+00
0.0880679      	(9.3727835e+00 9.5029781e-01 -7.6994028e+00)	1.9959647e+05	2.9383025e+02	2.3611262e+00
0.0880683      	(9.4852565e+00 9.3215704e-01 -7.7981960e+00)	1.9960440e+05	2.9383359e+02	2.3611932e+00
0.0880687      	(9.5943990e+00 8.9668631e-01 -7.8615096e+00)	1.9961682e+05	2.9383882e+02	2.3612982e+00
0.088069       	(9.6550622e+00 8.4383622e-01 -7.8929307e+00)	1.9963409e+05	2.9384609e+02	2.3614442e+00
0.0880694      	(9.6884487e+00 6.9953858e-01 -7.9065392e+00)	1.9965595e+05	2.9385530e+02	2.3616290e+00
0.0880698      	(9.6727131e+00 5.6345381e-01 -7.8619565e+00)	1.9968218e+05	2.9386635e+02	2.3618507e+00
0.0880702      	(9.5810751e+00 3.8249984e-01 -7.7551838e+00)	1.9971167e+05	2.9387876e+02	2.3621000e+00
0.0880706      	(9.4436249e+00 2.5517664e-01 -7.5946485e+00)	1.9974237e+05	2.9389168e+02	2.3623595e+00
0.0880709      	(9.2232566e+00 1.9739110e-01 -7.4099356e+00)	1.9977323e+05	2.9390468e+02	2.3626203e+00
0.0880713      	(8.9500249e+00 1.5294563e-01 -7.1722791e+00)	1.9980164e+05	2.9391663e+02	2.3628605e+00
0.0880717      	(8.6382249e+00 1.3310338e-01 -6.8879727e+00)	1.9982548e+05	2.9392667e+02	2.3630620e+00
0.0880721      	(8.2893524e+00 1.2062661e-01 -6.5758859e+00)	1.9984301e+05	2.9393404e+02	2.3632101e+00
0.0880725      	(7.9183549e+00 1.1913788e-01 -6.2306356e+00)	1.9985356e+05	2.9393847e+02	2.3632992e+00
0.0880728      	(7.5061457e+00 1.1116308e-01 -5.9137081e+00)	1.9985676e+05	2.9393982e+02	2.3633262e+00
0.0880732      	(7.0863040e+00 1.0180014e-01 -5.6178688e+00)	1.9985306e+05	2.9393826e+02	2.3632949e+00
0.0880736      	(6.6855754e+00 8.1849152e-02 -5.3527364e+00)	1.9984372e+05	2.9393432e+02	2.3632159e+00
0.088074       	(6.2696947e+00 6.4329342e-02 -5.1055594e+00)	1.9983040e+05	2.9392872e+02	2.3631034e+00
0.0880744      	(5.8953975e+00 4.0924354e-02 -4.8689796e+00)	1.9981506e+05	2.9392226e+02	2.3629737e+00
0.0880747      	(5.6015384e+00 3.5933338e-02 -4.6475458e+00)	1.9979886e+05	2.9391544e+02	2.3628368e+00
0.0880751      	(5.3516503e+00 1.5342396e-02 -4.4687012e+00)	1.9978244e+05	2.9390852e+02	2.3626980e+00
0.0880755      	(5.1377178e+00 -1.6173793e-02 -4.3297919e+00)	1.9976649e+05	2.9390180e+02	2.3625631e+00
0.0880759      	(4.9554085e+00 -5.5456838e-02 -4.2094916e+00)	1.9975178e+05	2.9389560e+02	2.3624387e+00
0.0880763      	(4.8038681e+00 -9.9660095e-02 -4.0988022e+00)	1.9973898e+05	2.9389021e+02	2.3623305e+00
0.0880767      	(4.6667951e+00 -1.5047393e-01 -3.9919428e+00)	1.9972869e+05	2.9388587e+02	2.3622434e+00
0.088077       	(4.5311784e+00 -2.0179373e-01 -3.8881882e+00)	1.9972160e+05	2.9388288e+02	2.3621834e+00
0.0880774      	(4.3877593e+00 -2.2437551e-01 -3.7831664e+00)	1.9971825e+05	2.9388146e+02	2.3621551e+00
0.0880778      	(4.2384798e+00 -2.5307885e-01 -3.6617757e+00)	1.9971888e+05	2.9388172e+02	2.3621603e+00
0.0880782      	(4.0915693e+00 -2.9060809e-01 -3.5168034e+00)	1.9972393e+05	2.9388384e+02	2.3622030e+00
0.0880786      	(3.9259983e+00 -2.9600902e-01 -3.3535350e+00)	1.9973378e+05	2.9388798e+02	2.3622862e+00
0.0880789      	(3.7440313e+00 -2.8620846e-01 -3.1934275e+00)	1.9974823e+05	2.9389406e+02	2.3624083e+00
0.0880793      	(3.5739667e+00 -2.7482408e-01 -3.0335565e+00)	1.9976652e+05	2.9390177e+02	2.3625630e+00
0.0880797      	(3.3957375e+00 -2.4469562e-01 -2.8943704e+00)	1.9978817e+05	2.9391088e+02	2.3627460e+00
0.0880801      	(3.2347804e+00 -2.3214677e-01 -2.7630886e+00)	1.9981223e+05	2.9392101e+02	2.3629494e+00
0.0880805      	(3.1088410e+00 -2.0845331e-01 -2.6422097e+00)	1.9983783e+05	2.9393179e+02	2.3631658e+00
0.0880808      	(3.0321067e+00 -2.0184427e-01 -2.5620079e+00)	1.9986402e+05	2.9394282e+02	2.3633871e+00
0.0880812      	(3.0023500e+00 -1.9463168e-01 -2.5048623e+00)	1.9988937e+05	2.9395348e+02	2.3636014e+00
0.0880816      	(3.0076525e+00 -1.9421255e-01 -2.5529130e+00)	1.9991256e+05	2.9396324e+02	2.3637973e+00
0.088082       	(3.0509865e+00 -1.3833418e-01 -2.6456615e+00)	1.9993192e+05	2.9397139e+02	2.3639609e+00
0.0880824      	(3.1502703e+00 -1.4037897e-01 -2.8295354e+00)	1.9994531e+05	2.9397702e+02	2.3640741e+00
0.0880827      	(3.3129836e+00 -1.2383081e-01 -3.0440681e+00)	1.9995110e+05	2.9397946e+02	2.3641230e+00
0.0880831      	(3.5526553e+00 -1.3544730e-01 -3.3146233e+00)	1.9994802e+05	2.9397816e+02	2.3640970e+00
0.0880835      	(3.8516333e+00 -1.1323554e-01 -3.6376746e+00)	1.9993641e+05	2.9397329e+02	2.3639990e+00
0.0880839      	(4.1738236e+00 -7.9189765e-02 -3.9830576e+00)	1.9991789e+05	2.9396550e+02	2.3638425e+00
0.0880843      	(4.5372638e+00 1.6115260e-02 -4.3483240e+00)	1.9989461e+05	2.9395572e+02	2.3636459e+00
0.0880846      	(4.9337989e+00 1.0690896e-01 -4.7203550e+00)	1.9986807e+05	2.9394456e+02	2.3634217e+00
0.088085       	(5.3586617e+00 1.8198439e-01 -5.1006956e+00)	1.9983922e+05	2.9393243e+02	2.3631780e+00
0.0880854      	(5.7944246e+00 2.6535654e-01 -5.4861392e+00)	1.9980906e+05	2.9391974e+02	2.3629231e+00
0.0880858      	(6.2308138e+00 3.3527928e-01 -5.8660433e+00)	1.9977849e+05	2.9390689e+02	2.3626648e+00
0.0880862      	(6.6593966e+00 4.0125697e-01 -6.2255696e+00)	1.9974853e+05	2.9389428e+02	2.3624116e+00
0.0880866      	(7.0618726e+00 4.6711616e-01 -6.5660073e+00)	1.9971999e+05	2.9388227e+02	2.3621704e+00
0.0880869      	(7.4406758e+00 5.2774025e-01 -6.8819755e+00)	1.9969339e+05	2.9387108e+02	2.3619456e+00
0.0880873      	(7.7954340e+00 5.8508030e-01 -7.1766349e+00)	1.9966897e+05	2.9386079e+02	2.3617391e+00
0.0880877      	(8.1181641e+00 6.3601280e-01 -7.4478660e+00)	1.9964678e+05	2.9385145e+02	2.3615516e+00
0.0880881      	(8.4286396e+00 6.8423541e-01 -7.6893937e+00)	1.9962678e+05	2.9384303e+02	2.3613825e+00
0.0880885      	(8.7111653e+00 7.3303328e-01 -7.9077927e+00)	1.9960916e+05	2.9383560e+02	2.3612335e+00
0.0880888      	(8.9672637e+00 7.7917069e-01 -8.1077859e+00)	1.9959427e+05	2.9382933e+02	2.3611076e+00
0.0880892      	(9.1994898e+00 8.2538292e-01 -8.2751329e+00)	1.9958275e+05	2.9382447e+02	2.3610101e+00
0.0880896      	(9.3887378e+00 8.6117731e-01 -8.4146182e+00)	1.9957492e+05	2.9382117e+02	2.3609439e+00
0.08809        	(9.5547840e+00 8.8510293e-01 -8.5239031e+00)	1.9957166e+05	2.9381980e+02	2.3609164e+00
0.0880904      	(9.6598640e+00 8.9853739e-01 -8.6101331e+00)	1.9957378e+05	2.9382069e+02	2.3609343e+00
0.0880907      	(9.7288655e+00 9.0164136e-01 -8.6647719e+00)	1.9958157e+05	2.9382397e+02	2.3610002e+00
0.0880911      	(9.7623747e+00 8.7996868e-01 -8.6736986e+00)	1.9959464e+05	2.9382947e+02	2.3611106e+00
0.0880915      	(9.7569437e+00 8.3226113e-01 -8.6572618e+00)	1.9961276e+05	2.9383711e+02	2.3612639e+00
0.0880919      	(9.7120136e+00 7.1944463e-01 -8.6058979e+00)	1.9963686e+05	2.9384726e+02	2.3614676e+00
0.0880923      	(9.5992509e+00 5.9528851e-01 -8.4881847e+00)	1.9966686e+05	2.9385989e+02	2.3617212e+00
0.0880926      	(9.3848047e+00 4.6685090e-01 -8.2801831e+00)	1.9970206e+05	2.9387472e+02	2.3620188e+00
0.088093       	(9.0810231e+00 3.1123706e-01 -8.0036153e+00)	1.9974038e+05	2.9389085e+02	2.3623427e+00
0.0880934      	(8.7068279e+00 2.3677482e-01 -7.6738317e+00)	1.9977841e+05	2.9390685e+02	2.3626641e+00
0.0880938      	(8.2740370e+00 1.8992599e-01 -7.2883820e+00)	1.9981325e+05	2.9392151e+02	2.3629585e+00
0.0880942      	(7.8152510e+00 1.5355800e-01 -6.8460006e+00)	1.9984238e+05	2.9393377e+02	2.3632047e+00
0.0880945      	(7.3620766e+00 1.2816230e-01 -6.3676133e+00)	1.9986263e+05	2.9394229e+02	2.3633758e+00
0.0880949      	(6.8912908e+00 1.1399706e-01 -5.8775334e+00)	1.9987246e+05	2.9394641e+02	2.3634588e+00
0.0880953      	(6.4099831e+00 1.1198725e-01 -5.3883512e+00)	1.9987236e+05	2.9394637e+02	2.3634579e+00
0.0880957      	(5.9261067e+00 1.1035165e-01 -4.8818968e+00)	1.9986502e+05	2.9394328e+02	2.3633959e+00
0.0880961      	(5.4353464e+00 8.2482591e-02 -4.3871632e+00)	1.9985278e+05	2.9393813e+02	2.3632924e+00
0.0880965      	(4.9939775e+00 6.3019945e-02 -3.9297522e+00)	1.9983743e+05	2.9393167e+02	2.3631627e+00
0.0880968      	(4.5764249e+00 6.4910761e-03 -3.5377422e+00)	1.9982063e+05	2.9392459e+02	2.3630207e+00
0.0880972      	(4.1984495e+00 -6.5887890e-02 -3.2010371e+00)	1.9980357e+05	2.9391741e+02	2.3628765e+00
0.0880976      	(3.8676480e+00 -1.3180107e-01 -2.9316518e+00)	1.9978729e+05	2.9391055e+02	2.3627388e+00
0.088098       	(3.5988456e+00 -1.9710483e-01 -2.7244103e+00)	1.9977258e+05	2.9390435e+02	2.3626144e+00
0.0880984      	(3.3842241e+00 -2.6009136e-01 -2.5702553e+00)	1.9976011e+05	2.9389910e+02	2.3625090e+00
0.0880987      	(3.2139280e+00 -3.1027523e-01 -2.4553424e+00)	1.9975046e+05	2.9389503e+02	2.3624274e+00
0.0880991      	(3.0777771e+00 -3.5272011e-01 -2.3791746e+00)	1.9974411e+05	2.9389234e+02	2.3623736e+00
0.0880995      	(2.9599597e+00 -3.8690311e-01 -2.3246971e+00)	1.9974154e+05	2.9389125e+02	2.3623518e+00
0.0880999      	(2.8525100e+00 -4.1961409e-01 -2.2799185e+00)	1.9974296e+05	2.9389184e+02	2.3623637e+00
0.0881003      	(2.7488159e+00 -4.3887026e-01 -2.2352760e+00)	1.9974870e+05	2.9389426e+02	2.3624123e+00
0.0881006      	(2.6329820e+00 -4.4878169e-01 -2.1904143e+00)	1.9975877e+05	2.9389849e+02	2.3624973e+00
0.088101       	(2.5228608e+00 -4.5342146e-01 -2.1527288e+00)	1.9977280e+05	2.9390440e+02	2.3626159e+00
0.0881014      	(2.4213010e+00 -4.5728625e-01 -2.1300149e+00)	1.9979013e+05	2.9391170e+02	2.3627625e+00
0.0881018      	(2.3301257e+00 -4.3693255e-01 -2.1239205e+00)	1.9981029e+05	2.9392018e+02	2.3629328e+00
0.0881022      	(2.2696903e+00 -4.0987225e-01 -2.1441296e+00)	1.9983235e+05	2.9392947e+02	2.3631193e+00
0.0881025      	(2.2543898e+00 -3.4990668e-01 -2.1532625e+00)	1.9985552e+05	2.9393923e+02	2.3633152e+00
0.0881029      	(2.2920787e+00 -2.8834425e-01 -2.1734806e+00)	1.9987888e+05	2.9394906e+02	2.3635126e+00
0.0881033      	(2.3871058e+00 -2.2272481e-01 -2.2003138e+00)	1.9990132e+05	2.9395851e+02	2.3637023e+00
0.0881037      	(2.5085113e+00 -1.7032513e-01 -2.2697616e+00)	1.9992146e+05	2.9396699e+02	2.3638726e+00
0.0881041      	(2.7027531e+00 -1.5268379e-01 -2.3931273e+00)	1.9993738e+05	2.9397369e+02	2.3640071e+00
0.0881044      	(2.9504200e+00 -1.3015271e-01 -2.5412214e+00)	1.9994717e+05	2.9397780e+02	2.3640898e+00
0.0881048      	(3.2545758e+00 -1.2153910e-01 -2.7233887e+00)	1.9994957e+05	2.9397882e+02	2.3641101e+00
0.0881052      	(3.6311789e+00 -1.3748842e-01 -2.9402931e+00)	1.9994373e+05	2.9397636e+02	2.3640608e+00
0.0881056      	(4.0101374e+00 -1.7416356e-01 -3.2311243e+00)	1.9993015e+05	2.9397065e+02	2.3639461e+00
0.088106       	(4.3799634e+00 -1.2675725e-01 -3.5502378e+00)	1.9991126e+05	2.9396271e+02	2.3637865e+00
0.0881064      	(4.7849518e+00 -4.3670150e-02 -3.8834780e+00)	1.9988898e+05	2.9395335e+02	2.3635983e+00
0.0881067      	(5.2032283e+00 5.4485624e-02 -4.2217774e+00)	1.9986451e+05	2.9394306e+02	2.3633916e+00
0.0881071      	(5.6141961e+00 1.4415897e-01 -4.5892961e+00)	1.9983896e+05	2.9393232e+02	2.3631758e+00
0.0881075      	(6.0352091e+00 2.3411814e-01 -4.9421451e+00)	1.9981334e+05	2.9392155e+02	2.3629593e+00
0.0881079      	(6.4413491e+00 3.1285314e-01 -5.2923377e+00)	1.9978852e+05	2.9391111e+02	2.3627495e+00
0.0881083      	(6.8242376e+00 3.8094346e-01 -5.6375936e+00)	1.9976517e+05	2.9390128e+02	2.3625522e+00
0.0881086      	(7.1856331e+00 4.4800706e-01 -5.9574315e+00)	1.9974363e+05	2.9389222e+02	2.3623702e+00
0.088109       	(7.5150584e+00 5.0058131e-01 -6.2635931e+00)	1.9972431e+05	2.9388410e+02	2.3622069e+00