# Region type : patch wOutlet
# Faces  :     856
# Area   :     7.7968050e-05
# Time         	average(U)	average(p)	average(T)
0              	(0.0000000e+00 0.0000000e+00 0.0000000e+00)	1.0000000e+05	2.9400000e+02
5.10704e-07    	(7.2563055e-17 -7.1591420e-15 1.0944620e-16)	1.0000000e+05	2.9400000e+02
9.44831e-07    	(7.5401013e-16 -7.6328706e-15 -8.6005599e-17)	1.0000000e+05	2.9400000e+02
1.37896e-06    	(1.5461408e-15 -7.7987770e-15 -6.3060109e-16)	1.0000000e+05	2.9400000e+02
1.81308e-06    	(1.9403466e-15 -8.4889183e-15 -1.1782852e-15)	1.0000000e+05	2.9400000e+02
2.24721e-06    	(2.1867470e-15 -9.9572117e-15 -3.7737459e-16)	1.0000000e+05	2.9400000e+02
2.68134e-06    	(2.1612349e-15 -1.2928452e-14 1.7830893e-16)	1.0000000e+05	2.9400000e+02
3.11546e-06    	(1.4953359e-15 -1.6010504e-14 1.0946274e-15)	1.0000000e+05	2.9400000e+02
3.54959e-06    	(1.3037424e-15 -2.0802457e-14 1.3022925e-15)	1.0000000e+05	2.9400000e+02
3.98372e-06    	(1.4383665e-15 -2.7315852e-14 1.1409052e-15)	1.0000000e+05	2.9400000e+02
4.41784e-06    	(1.4955722e-15 -3.3745568e-14 1.9589918e-15)	1.0000000e+05	2.9400000e+02
4.85197e-06    	(2.0527213e-15 -4.0849338e-14 2.1455305e-15)	1.0000000e+05	2.9400000e+02
5.2861e-06     	(2.3808847e-15 -4.8437039e-14 2.1378098e-15)	1.0000000e+05	2.9400000e+02
5.72022e-06    	(2.8023069e-15 -5.5728905e-14 2.1965751e-15)	1.0000000e+05	2.9400000e+02
6.15435e-06    	(3.2215794e-15 -6.5198764e-14 1.7412308e-15)	1.0000000e+05	2.9400000e+02
6.58847e-06    	(2.8122225e-15 -7.6580967e-14 1.1793629e-15)	1.0000000e+05	2.9400000e+02
7.0226e-06     	(2.9305155e-15 -8.9462563e-14 7.7892337e-16)	1.0000000e+05	2.9400000e+02
7.45673e-06    	(2.8623589e-15 -1.0376916e-13 1.0008694e-16)	1.0000000e+05	2.9400000e+02
7.89085e-06    	(2.3557492e-15 -1.1872795e-13 -3.8919863e-16)	1.0000000e+05	2.9400000e+02
8.32498e-06    	(2.0383893e-15 -1.3478070e-13 -1.0937144e-15)	1.0000000e+05	2.9400000e+02
8.75911e-06    	(1.9430131e-15 -1.5184101e-13 -1.6643315e-15)	1.0000000e+05	2.9400000e+02
9.19323e-06    	(1.4071377e-15 -1.6891338e-13 -1.9877494e-15)	1.0000000e+05	2.9400000e+02
9.62736e-06    	(8.9040472e-16 -1.8563646e-13 -1.9736238e-15)	1.0000000e+05	2.9400000e+02
1.00615e-05    	(6.8344399e-16 -2.0280483e-13 -1.8004659e-15)	1.0000000e+05	2.9400000e+02
1.04956e-05    	(-4.3055466e-18 -2.2141028e-13 -1.2788196e-15)	1.0000000e+05	2.9400000e+02
1.09297e-05    	(1.3149409e-16 -2.4043485e-13 -8.1811697e-16)	1.0000000e+05	2.9400000e+02
1.13639e-05    	(9.4219051e-17 -2.6112510e-13 -1.0456387e-16)	1.0000000e+05	2.9400000e+02
1.1798e-05     	(-9.8404734e-16 -2.8242452e-13 1.7450424e-15)	1.0000000e+05	2.9400000e+02
1.22321e-05    	(-1.8246490e-15 -3.0426842e-13 2.3964156e-15)	1.0000000e+05	2.9400000e+02
1.26662e-05    	(-2.5392486e-15 -3.2720042e-13 3.8433771e-15)	1.0000000e+05	2.9400000e+02
1.31004e-05    	(-3.5356524e-15 -3.5069971e-13 4.9412444e-15)	1.0000000e+05	2.9400000e+02
1.35345e-05    	(-3.9275944e-15 -3.7413120e-13 5.7524023e-15)	1.0000000e+05	2.9400000e+02
1.39686e-05    	(-3.5158772e-15 -3.9737662e-13 5.9764466e-15)	1.0000000e+05	2.9400000e+02
1.44028e-05    	(-3.3736162e-15 -4.2076497e-13 6.6357988e-15)	1.0000000e+05	2.9400000e+02
1.48369e-05    	(-3.4841578e-15 -4.4488447e-13 7.9727907e-15)	1.0000000e+05	2.9400000e+02
1.5271e-05     	(-3.4752512e-15 -4.6799528e-13 8.2385824e-15)	1.0000000e+05	2.9400000e+02
1.57051e-05    	(-2.7982540e-15 -4.9214561e-13 7.6054380e-15)	1.0000000e+05	2.9400000e+02
1.61393e-05    	(-2.2605203e-15 -5.1687574e-13 8.2709010e-15)	1.0000000e+05	2.9400000e+02
1.65734e-05    	(-2.3186717e-15 -5.4227598e-13 8.8723446e-15)	1.0000000e+05	2.9400000e+02
1.70075e-05    	(-2.2608251e-15 -5.6803895e-13 1.0845415e-14)	1.0000000e+05	2.9400000e+02
1.74416e-05    	(-2.4595671e-15 -5.9518951e-13 1.3222780e-14)	1.0000000e+05	2.9400000e+02
1.78758e-05    	(-2.4511821e-15 -6.2227144e-13 1.4732681e-14)	1.0000000e+05	2.9400000e+02
1.83099e-05    	(-1.4738705e-15 -6.5191523e-13 1.5928473e-14)	1.0000000e+05	2.9400000e+02
1.8744e-05     	(5.8148303e-16 -6.8121922e-13 1.7150147e-14)	1.0000000e+05	2.9400000e+02
1.91781e-05    	(6.9029676e-10 -7.5694455e-10 9.3163834e-09)	1.0000000e+05	2.9400000e+02
1.96123e-05    	(-3.7094193e-10 2.3643297e-08 -2.0890701e-09)	1.0000000e+05	2.9400000e+02
2.00464e-05    	(-2.0804249e-09 3.9726612e-08 -9.6184540e-09)	1.0000000e+05	2.9400000e+02
2.04805e-05    	(-5.2016814e-09 4.1807935e-08 -8.8260389e-09)	1.0000000e+05	2.9400000e+02
2.09146e-05    	(-5.2313301e-09 3.6956769e-08 -7.0839635e-09)	1.0000000e+05	2.9400000e+02
2.13488e-05    	(-5.1163304e-09 3.0486101e-08 -4.7841372e-09)	1.0000000e+05	2.9400000e+02
2.17829e-05    	(-5.4835607e-09 2.5593240e-08 -2.0899297e-09)	1.0000000e+05	2.9400000e+02
2.2217e-05     	(-4.3397775e-09 2.1771473e-08 3.2026865e-10)	1.0000000e+05	2.9400000e+02
2.26512e-05    	(-3.3043050e-09 1.8334481e-08 2.1033611e-09)	1.0000000e+05	2.9400000e+02
2.30853e-05    	(-3.3349497e-09 1.4797376e-08 3.4527806e-09)	1.0000000e+05	2.9400000e+02
2.35194e-05    	(-4.0323297e-09 1.1277889e-08 4.0490803e-09)	1.0000000e+05	2.9400000e+02
2.39535e-05    	(-4.5628293e-09 8.1260438e-09 4.2965124e-09)	1.0000000e+05	2.9400000e+02
2.43877e-05    	(-4.7017060e-09 5.6479130e-09 4.4728895e-09)	1.0000000e+05	2.9400000e+02
2.48218e-05    	(-4.4527610e-09 3.5549235e-09 4.9663512e-09)	1.0000000e+05	2.9400000e+02
2.52559e-05    	(-4.0745807e-09 1.7252608e-09 5.7157230e-09)	1.0000000e+05	2.9400000e+02
2.569e-05      	(-3.7732249e-09 -2.9280859e-10 6.3380660e-09)	1.0000000e+05	2.9400000e+02
2.61242e-05    	(-3.4948394e-09 -2.3481436e-09 7.0044243e-09)	1.0000000e+05	2.9400000e+02
2.65583e-05    	(-3.1716147e-09 -4.2136695e-09 7.8135567e-09)	1.0000000e+05	2.9400000e+02
2.69924e-05    	(-2.6864671e-09 -6.0711567e-09 8.3311600e-09)	1.0000000e+05	2.9400000e+02
2.74265e-05    	(-2.2269762e-09 -7.9405190e-09 8.8495773e-09)	1.0000000e+05	2.9400000e+02
2.78607e-05    	(-1.9038006e-09 -9.8451369e-09 9.3895100e-09)	1.0000000e+05	2.9400000e+02
2.82948e-05    	(-1.5860220e-09 -1.1752931e-08 9.8770150e-09)	1.0000000e+05	2.9400000e+02
2.87289e-05    	(-1.0701790e-09 -1.3658790e-08 1.0502036e-08)	1.0000000e+05	2.9400000e+02
2.9163e-05     	(-5.7919422e-10 -1.5620263e-08 1.1115843e-08)	1.0000000e+05	2.9400000e+02
2.95972e-05    	(-6.4496099e-11 -1.7704307e-08 1.1767611e-08)	1.0000000e+05	2.9400000e+02
3.00313e-05    	(3.1628791e-10 -1.9797943e-08 1.2332420e-08)	1.0000000e+05	2.9400000e+02
3.04654e-05    	(4.9122424e-10 -2.1857331e-08 1.2726871e-08)	1.0000000e+05	2.9400000e+02
3.08996e-05    	(1.1019056e-09 -2.3757940e-08 1.3313346e-08)	1.0000000e+05	2.9400000e+02
3.13337e-05    	(1.1175092e-09 -2.5719860e-08 1.3821871e-08)	1.0000000e+05	2.9400000e+02
3.17678e-05    	(1.2532893e-09 -2.7678881e-08 1.4246178e-08)	1.0000000e+05	2.9400000e+02
3.22019e-05    	(1.3978997e-09 -2.9638182e-08 1.4683240e-08)	1.0000000e+05	2.9400000e+02
3.26361e-05    	(1.5439181e-09 -3.1596931e-08 1.5153802e-08)	1.0000000e+05	2.9400000e+02
3.30702e-05    	(1.6563788e-09 -3.3586817e-08 1.5670655e-08)	1.0000000e+05	2.9400000e+02
3.35043e-05    	(1.8504304e-09 -3.5535629e-08 1.6274343e-08)	1.0000000e+05	2.9400000e+02
3.39384e-05    	(2.0516819e-09 -3.7535777e-08 1.6957410e-08)	1.0000000e+05	2.9400000e+02
3.43726e-05    	(2.8720517e-09 -3.9224297e-08 1.7651779e-08)	1.0000000e+05	2.9400000e+02
3.48067e-05    	(3.1056612e-09 -4.1022807e-08 1.8327516e-08)	1.0000000e+05	2.9400000e+02
3.52408e-05    	(3.5151200e-09 -4.3075780e-08 1.9099332e-08)	1.0000000e+05	2.9400000e+02
3.56749e-05    	(3.9650472e-09 -4.5107376e-08 1.9834709e-08)	1.0000000e+05	2.9400000e+02
3.61091e-05    	(4.0907673e-09 -4.7266740e-08 2.0620463e-08)	1.0000000e+05	2.9400000e+02
3.65432e-05    	(4.3923759e-09 -4.9529620e-08 2.1469583e-08)	1.0000000e+05	2.9400000e+02
3.69773e-05    	(4.6678504e-09 -5.1777245e-08 2.2420156e-08)	1.0000000e+05	2.9400000e+02
3.74115e-05    	(5.0476425e-09 -5.4230050e-08 2.3369268e-08)	1.0000000e+05	2.9400000e+02
3.78456e-05    	(5.3619539e-09 -5.6933449e-08 2.4580550e-08)	1.0000000e+05	2.9400000e+02
3.82797e-05    	(6.6825018e-09 -5.9602117e-08 2.5803194e-08)	1.0000000e+05	2.9400000e+02
3.87138e-05    	(7.6570920e-09 -6.2367382e-08 2.6942091e-08)	1.0000000e+05	2.9400000e+02
3.9148e-05     	(8.4967687e-09 -6.5091056e-08 2.8088997e-08)	1.0000000e+05	2.9400000e+02
3.95821e-05    	(9.4639665e-09 -6.8198026e-08 2.9258911e-08)	1.0000000e+05	2.9400000e+02
4.00162e-05    	(1.0199488e-08 -7.1092941e-08 3.0323025e-08)	1.0000000e+05	2.9400000e+02
4.04503e-05    	(1.1324662e-08 -7.4549474e-08 3.2026375e-08)	1.0000000e+05	2.9400000e+02
4.08845e-05    	(1.2326188e-08 -7.8074456e-08 3.3831869e-08)	1.0000000e+05	2.9400000e+02
4.13186e-05    	(1.3731357e-08 -8.1905971e-08 3.5930508e-08)	1.0000000e+05	2.9400000e+02
4.17527e-05    	(1.4748584e-08 -8.5337397e-08 3.7487508e-08)	1.0000000e+05	2.9400000e+02
4.21868e-05    	(1.6157220e-08 -8.9086098e-08 3.9350411e-08)	1.0000000e+05	2.9400000e+02
4.2621e-05     	(1.7173154e-08 -9.3211624e-08 4.1160661e-08)	1.0000000e+05	2.9400000e+02
4.30551e-05    	(1.8658325e-08 -9.7521228e-08 4.3353217e-08)	1.0000000e+05	2.9400000e+02
4.34892e-05    	(2.0042209e-08 -1.0208425e-07 4.5648591e-08)	1.0000000e+05	2.9400000e+02
4.39233e-05    	(2.1612901e-08 -1.0671763e-07 4.8235032e-08)	1.0000000e+05	2.9400000e+02
4.43575e-05    	(2.2762269e-08 -1.1159086e-07 5.0634083e-08)	1.0000000e+05	2.9400000e+02
4.47916e-05    	(2.4612356e-08 -1.1635656e-07 5.2825487e-08)	1.0000000e+05	2.9400000e+02
4.52257e-05    	(2.5896389e-08 -1.2082690e-07 5.5249702e-08)	1.0000000e+05	2.9400000e+02
4.56599e-05    	(2.7440872e-08 -1.2673074e-07 5.8457029e-08)	1.0000000e+05	2.9400000e+02
4.6094e-05     	(2.8929366e-08 -1.3253496e-07 6.1442197e-08)	1.0000000e+05	2.9400000e+02
4.65281e-05    	(3.0590196e-08 -1.3873831e-07 6.4309883e-08)	1.0000000e+05	2.9400000e+02
4.69622e-05    	(3.1866778e-08 -1.4460886e-07 6.7103128e-08)	1.0000000e+05	2.9400000e+02
4.73964e-05    	(3.3015421e-08 -1.5097157e-07 7.0012096e-08)	1.0000000e+05	2.9400000e+02
4.78305e-05    	(3.5058452e-08 -1.5729580e-07 7.3006521e-08)	1.0000000e+05	2.9400000e+02
4.82646e-05    	(3.6922260e-08 -1.6427526e-07 7.6995799e-08)	1.0000000e+05	2.9400000e+02
4.86987e-05    	(3.8566560e-08 -1.7155599e-07 8.0261739e-08)	1.0000000e+05	2.9400000e+02
4.91329e-05    	(3.9909074e-08 -1.7881788e-07 8.3390980e-08)	1.0000000e+05	2.9400000e+02
4.9567e-05     	(4.1142469e-08 -1.8627239e-07 8.6520805e-08)	1.0000000e+05	2.9400000e+02
5.00011e-05    	(4.3626906e-08 -1.9400684e-07 9.0365919e-08)	1.0000000e+05	2.9400000e+02
5.04352e-05    	(4.5411280e-08 -2.0239014e-07 9.4407602e-08)	1.0000000e+05	2.9400000e+02
5.08694e-05    	(4.9218150e-08 -2.1087045e-07 9.9155898e-08)	1.0000000e+05	2.9400000e+02
5.13035e-05    	(5.0633479e-08 -2.1793389e-07 1.0154885e-07)	1.0000000e+05	2.9400000e+02
5.17376e-05    	(5.1608814e-08 -2.2586862e-07 1.0465777e-07)	1.0000000e+05	2.9400000e+02
5.21718e-05    	(5.2818091e-08 -2.3537042e-07 1.0898502e-07)	1.0000000e+05	2.9400000e+02
5.26059e-05    	(5.4978460e-08 -2.4665718e-07 1.1517124e-07)	1.0000000e+05	2.9400000e+02
5.304e-05      	(5.6737120e-08 -2.5658631e-07 1.1948361e-07)	1.0000000e+05	2.9400000e+02
5.34741e-05    	(5.8042929e-08 -2.6515218e-07 1.2274656e-07)	1.0000000e+05	2.9400000e+02
5.39083e-05    	(5.9541472e-08 -2.7521243e-07 1.2652349e-07)	1.0000000e+05	2.9400000e+02
5.43424e-05    	(6.1028407e-08 -2.8571324e-07 1.3104655e-07)	1.0000000e+05	2.9400000e+02
5.47765e-05    	(6.2862222e-08 -2.9793631e-07 1.3646141e-07)	1.0000000e+05	2.9400000e+02
5.52106e-05    	(6.5124844e-08 -3.0975367e-07 1.4244646e-07)	1.0000000e+05	2.9400000e+02
5.56448e-05    	(6.6160767e-08 -3.1910593e-07 1.4555564e-07)	1.0000000e+05	2.9400000e+02
5.60789e-05    	(6.8107690e-08 -3.2972100e-07 1.4954492e-07)	1.0000000e+05	2.9400000e+02
5.6513e-05     	(6.9280825e-08 -3.4181029e-07 1.5419906e-07)	1.0000000e+05	2.9400000e+02
5.69471e-05    	(7.0769226e-08 -3.5380118e-07 1.5896000e-07)	1.0000000e+05	2.9400000e+02
5.73813e-05    	(7.1390592e-08 -3.6685855e-07 1.6496414e-07)	1.0000000e+05	2.9400000e+02
5.78154e-05    	(7.1917886e-08 -3.7864421e-07 1.6888738e-07)	1.0000000e+05	2.9400000e+02
5.82495e-05    	(7.2123287e-08 -3.9025607e-07 1.7246470e-07)	1.0000000e+05	2.9400000e+02
5.86836e-05    	(7.2282908e-08 -4.0202600e-07 1.7682284e-07)	1.0000000e+05	2.9400000e+02
5.91178e-05    	(7.0622835e-08 -4.1395674e-07 1.8365468e-07)	1.0000000e+05	2.9400000e+02
5.95519e-05    	(6.9155916e-08 -4.2485446e-07 1.8771817e-07)	1.0000000e+05	2.9400000e+02
5.9986e-05     	(6.8153223e-08 -4.3539239e-07 1.9074666e-07)	1.0000000e+05	2.9400000e+02
6.04202e-05    	(6.5351071e-08 -4.4815470e-07 1.9725927e-07)	1.0000000e+05	2.9400000e+02
6.08543e-05    	(7.0387674e-08 -4.5847799e-07 2.0386485e-07)	1.0000000e+05	2.9400000e+02
6.12884e-05    	(7.3982400e-08 -4.6953329e-07 2.0993025e-07)	1.0000000e+05	2.9400000e+02
6.17225e-05    	(7.5855108e-08 -4.8148965e-07 2.1788297e-07)	1.0000000e+05	2.9400000e+02
6.21567e-05    	(7.7034168e-08 -4.9242595e-07 2.2439727e-07)	1.0000000e+05	2.9400000e+02
6.25908e-05    	(7.6730798e-08 -5.0313331e-07 2.2936605e-07)	1.0000000e+05	2.9400000e+02
6.30249e-05    	(7.6445503e-08 -5.1536627e-07 2.3797054e-07)	1.0000000e+05	2.9400000e+02
6.3459e-05     	(7.8726316e-08 -5.2689285e-07 2.4439506e-07)	1.0000000e+05	2.9400000e+02
6.38932e-05    	(7.7836150e-08 -5.3976041e-07 2.5431812e-07)	1.0000000e+05	2.9400000e+02
6.43273e-05    	(7.9383914e-08 -5.5216472e-07 2.6212903e-07)	1.0000000e+05	2.9400000e+02
6.47614e-05    	(7.8614726e-08 -5.6605392e-07 2.7132252e-07)	1.0000000e+05	2.9400000e+02
6.51955e-05    	(7.8517674e-08 -5.8112731e-07 2.8174343e-07)	1.0000000e+05	2.9400000e+02
6.56297e-05    	(7.9134716e-08 -5.9476577e-07 2.8839242e-07)	1.0000000e+05	2.9400000e+02
6.60638e-05    	(7.8226512e-08 -6.1026553e-07 2.9932174e-07)	1.0000000e+05	2.9400000e+02
6.64979e-05    	(7.8559257e-08 -6.2547521e-07 3.0754383e-07)	1.0000000e+05	2.9400000e+02
6.6932e-05     	(7.5431287e-08 -6.4182002e-07 3.1860885e-07)	1.0000000e+05	2.9400000e+02
6.73662e-05    	(7.2942315e-08 -6.5535417e-07 3.2478700e-07)	1.0000000e+05	2.9400000e+02
6.78003e-05    	(7.1539918e-08 -6.7332786e-07 3.3684048e-07)	1.0000000e+05	2.9400000e+02
6.82344e-05    	(6.8290173e-08 -6.8980576e-07 3.4711686e-07)	1.0000000e+05	2.9400000e+02
6.86686e-05    	(7.0620107e-08 -7.0484858e-07 3.5613876e-07)	1.0000000e+05	2.9400000e+02
6.91027e-05    	(6.7570019e-08 -7.2312498e-07 3.6819633e-07)	1.0000000e+05	2.9400000e+02
6.95368e-05    	(6.9216279e-08 -7.3907233e-07 3.7683347e-07)	1.0000000e+05	2.9400000e+02
6.99709e-05    	(6.8262841e-08 -7.6006325e-07 3.8725522e-07)	1.0000000e+05	2.9400000e+02
7.04051e-05    	(6.8965252e-08 -7.7702575e-07 3.9630962e-07)	1.0000000e+05	2.9400000e+02
7.08392e-05    	(6.9603212e-08 -7.9713899e-07 4.1067062e-07)	1.0000000e+05	2.9400000e+02
7.12733e-05    	(7.3425813e-08 -8.1551440e-07 4.1865264e-07)	1.0000000e+05	2.9400000e+02
7.17074e-05    	(7.1049806e-08 -8.3501457e-07 4.3034147e-07)	1.0000000e+05	2.9400000e+02
7.21416e-05    	(7.1647168e-08 -8.5539359e-07 4.4119111e-07)	1.0000000e+05	2.9400000e+02
7.25757e-05    	(7.3167985e-08 -8.7569931e-07 4.4882757e-07)	1.0000000e+05	2.9400000e+02
7.30098e-05    	(6.9459062e-08 -9.0070976e-07 4.6624995e-07)	1.0000000e+05	2.9400000e+02
7.34439e-05    	(7.1053837e-08 -9.2132880e-07 4.7388687e-07)	1.0000000e+05	2.9400000e+02
7.38781e-05    	(7.0468501e-08 -9.4660175e-07 4.8592936e-07)	1.0000000e+05	2.9400000e+02
7.43122e-05    	(6.9068204e-08 -9.6698818e-07 4.9781480e-07)	1.0000000e+05	2.9400000e+02
7.47463e-05    	(6.9036165e-08 -9.9274808e-07 5.1026860e-07)	1.0000000e+05	2.9400000e+02
7.51805e-05    	(6.9012294e-08 -1.0176020e-06 5.2015674e-07)	1.0000000e+05	2.9400000e+02
7.56146e-05    	(6.6883040e-08 -1.0428464e-06 5.3726561e-07)	1.0000000e+05	2.9400000e+02
7.60487e-05    	(6.7151048e-08 -1.0660155e-06 5.4580190e-07)	1.0000000e+05	2.9400000e+02
7.64828e-05    	(6.9882069e-08 -1.0945215e-06 5.5998663e-07)	1.0000000e+05	2.9400000e+02
7.6917e-05     	(6.7233747e-08 -1.1178164e-06 5.7427622e-07)	1.0000000e+05	2.9400000e+02
7.73511e-05    	(6.6402424e-08 -1.1430451e-06 5.8439129e-07)	1.0000000e+05	2.9400000e+02
7.77852e-05    	(6.5302583e-08 -1.1680026e-06 5.9143940e-07)	1.0000000e+05	2.9400000e+02
7.82193e-05    	(5.8196343e-08 -1.1950694e-06 6.0828774e-07)	1.0000000e+05	2.9400000e+02
7.86535e-05    	(5.0581219e-08 -1.2222702e-06 6.1782075e-07)	1.0000000e+05	2.9400000e+02
7.90876e-05    	(4.6542909e-08 -1.2477988e-06 6.2448155e-07)	1.0000000e+05	2.9400000e+02
7.95217e-05    	(4.2619577e-08 -1.2769035e-06 6.4458272e-07)	1.0000000e+05	2.9400000e+02
7.99558e-05    	(4.5039958e-08 -1.3030006e-06 6.5387177e-07)	1.0000000e+05	2.9400000e+02
8.039e-05      	(3.9683305e-08 -1.3306011e-06 6.7150223e-07)	1.0000000e+05	2.9400000e+02
8.08241e-05    	(4.1789399e-08 -1.3596296e-06 6.8169908e-07)	1.0000000e+05	2.9400000e+02
8.12582e-05    	(3.3624962e-08 -1.3887971e-06 6.9638332e-07)	1.0000000e+05	2.9400000e+02
8.16923e-05    	(3.0050195e-08 -1.4144848e-06 7.0798665e-07)	1.0000000e+05	2.9400000e+02
8.21265e-05    	(2.6019317e-08 -1.4457576e-06 7.1656108e-07)	1.0000000e+05	2.9400000e+02
8.25606e-05    	(1.9426597e-08 -1.4742565e-06 7.3601803e-07)	1.0000000e+05	2.9400000e+02
8.29947e-05    	(1.7053102e-08 -1.5021710e-06 7.4284562e-07)	1.0000000e+05	2.9400000e+02
8.34289e-05    	(1.1953460e-08 -1.5289275e-06 7.6136007e-07)	1.0000000e+05	2.9400000e+02
8.3863e-05     	(1.2165926e-08 -1.5558444e-06 7.6645045e-07)	1.0000000e+05	2.9400000e+02
8.42971e-05    	(-5.3855120e-09 -1.5799746e-06 7.8435104e-07)	1.0000000e+05	2.9400000e+02
8.47312e-05    	(-8.9525934e-09 -1.6036720e-06 7.8764648e-07)	1.0000000e+05	2.9400000e+02
8.51654e-05    	(-1.6008141e-08 -1.6267273e-06 8.0123071e-07)	1.0000000e+05	2.9400000e+02
8.55995e-05    	(-2.0736229e-08 -1.6540145e-06 8.0755292e-07)	1.0000000e+05	2.9400000e+02
8.60336e-05    	(-2.6601413e-08 -1.6759969e-06 8.2135890e-07)	1.0000000e+05	2.9400000e+02
8.64677e-05    	(-1.9354871e-08 -1.7012628e-06 8.4625408e-07)	1.0000000e+05	2.9400000e+02
8.69019e-05    	(-2.4113280e-08 -1.7226513e-06 8.5748666e-07)	1.0000000e+05	2.9400000e+02
8.7336e-05     	(-3.0257924e-08 -1.7464130e-06 8.7380744e-07)	1.0000000e+05	2.9400000e+02
8.77701e-05    	(-3.7165209e-08 -1.7723306e-06 8.8177213e-07)	1.0000000e+05	2.9400000e+02
8.82042e-05    	(-3.6321778e-08 -1.7900940e-06 9.0613169e-07)	1.0000000e+05	2.9400000e+02
8.86384e-05    	(-4.0343751e-08 -1.8109744e-06 9.0642531e-07)	1.0000000e+05	2.9400000e+02
8.90725e-05    	(-4.2957040e-08 -1.8339826e-06 9.2101937e-07)	1.0000000e+05	2.9400000e+02
8.95066e-05    	(-3.9305608e-08 -1.8527077e-06 9.4664186e-07)	1.0000000e+05	2.9400000e+02
8.99408e-05    	(-3.8832021e-08 -1.8726883e-06 9.5643791e-07)	1.0000000e+05	2.9400000e+02
9.03749e-05    	(-4.1698567e-08 -1.8930956e-06 9.7032091e-07)	1.0000000e+05	2.9400000e+02
9.0809e-05     	(-4.7473034e-08 -1.9110002e-06 9.8371140e-07)	1.0000000e+05	2.9400000e+02
9.12431e-05    	(-3.5070444e-08 -1.9350680e-06 1.0055078e-06)	1.0000000e+05	2.9400000e+02
9.16773e-05    	(-4.0122435e-08 -1.9513141e-06 1.0120093e-06)	1.0000000e+05	2.9400000e+02
9.21114e-05    	(-4.3779314e-08 -1.9689250e-06 1.0215266e-06)	1.0000000e+05	2.9400000e+02
9.25455e-05    	(-3.7649050e-08 -1.9906476e-06 1.0406647e-06)	1.0000000e+05	2.9400000e+02
9.29796e-05    	(-4.3199091e-08 -2.0012773e-06 1.0429226e-06)	1.0000000e+05	2.9400000e+02
9.34138e-05    	(-4.8586116e-08 -2.0226060e-06 1.0612855e-06)	1.0000000e+05	2.9400000e+02
9.38479e-05    	(-5.0594098e-08 -2.0411510e-06 1.0667548e-06)	1.0000000e+05	2.9400000e+02
9.4282e-05     	(-3.7406629e-08 -2.0558213e-06 1.0851181e-06)	1.0000000e+05	2.9400000e+02
9.47161e-05    	(-4.4314203e-08 -2.0740226e-06 1.1034220e-06)	1.0000000e+05	2.9400000e+02
9.51503e-05    	(-4.5237682e-08 -2.0864341e-06 1.1165299e-06)	1.0000000e+05	2.9400000e+02
9.55844e-05    	(-3.2832857e-08 -2.1074152e-06 1.1333288e-06)	1.0000000e+05	2.9400000e+02
9.60185e-05    	(-2.8120737e-08 -2.1183185e-06 1.1423954e-06)	1.0000000e+05	2.9400000e+02
9.64526e-05    	(-3.4077021e-08 -2.1384396e-06 1.1575410e-06)	1.0000000e+05	2.9400000e+02
9.68868e-05    	(-2.4110958e-08 -2.1515346e-06 1.1865561e-06)	1.0000000e+05	2.9400000e+02
9.73209e-05    	(-3.0387093e-08 -2.1675115e-06 1.1870107e-06)	1.0000000e+05	2.9400000e+02
9.7755e-05     	(-3.7875246e-08 -2.1826875e-06 1.1985941e-06)	1.0000000e+05	2.9400000e+02
9.81892e-05    	(-2.4255789e-08 -2.1949831e-06 1.2206872e-06)	1.0000000e+05	2.9400000e+02
9.86233e-05    	(-3.2386157e-08 -2.2092258e-06 1.2319016e-06)	1.0000000e+05	2.9400000e+02
9.90574e-05    	(-4.5663856e-08 -2.2256711e-06 1.2380299e-06)	1.0000000e+05	2.9400000e+02
9.94915e-05    	(-3.6493609e-08 -2.2414547e-06 1.2543138e-06)	1.0000000e+05	2.9400000e+02
9.99257e-05    	(-4.4590107e-08 -2.2519574e-06 1.2608100e-06)	1.0000000e+05	2.9400000e+02
0.00010036     	(-5.3481591e-08 -2.2718959e-06 1.2804727e-06)	1.0000000e+05	2.9400000e+02
0.000100794    	(-4.0701277e-08 -2.2865450e-06 1.2950531e-06)	1.0000000e+05	2.9400000e+02
0.000101228    	(-4.7060639e-08 -2.2998611e-06 1.3017443e-06)	1.0000000e+05	2.9400000e+02
0.000101662    	(-5.6144457e-08 -2.3142279e-06 1.3141032e-06)	1.0000000e+05	2.9400000e+02
0.000102096    	(-4.5435572e-08 -2.3288458e-06 1.3407457e-06)	1.0000000e+05	2.9400000e+02
0.00010253     	(-5.0046219e-08 -2.3449910e-06 1.3572960e-06)	1.0000000e+05	2.9400000e+02
0.000102965    	(-4.4228927e-08 -2.3566921e-06 1.3472932e-06)	1.0000000e+05	2.9400000e+02
0.000103399    	(-4.2872632e-08 -2.3736363e-06 1.3758234e-06)	1.0000000e+05	2.9400000e+02
0.000103833    	(-4.6749229e-08 -2.3857224e-06 1.3839536e-06)	1.0000000e+05	2.9400000e+02
0.000104267    	(-5.5311093e-08 -2.4021576e-06 1.3972406e-06)	1.0000000e+05	2.9400000e+02
0.000104701    	(-4.3906886e-08 -2.4160801e-06 1.4122451e-06)	1.0000000e+05	2.9400000e+02
0.000105135    	(-4.8715356e-08 -2.4255140e-06 1.4149625e-06)	1.0000000e+05	2.9400000e+02
0.000105569    	(-5.4832010e-08 -2.4398057e-06 1.4256888e-06)	1.0000000e+05	2.9400000e+02
0.000106003    	(-5.0442301e-08 -2.4498846e-06 1.4486869e-06)	1.0000000e+05	2.9400000e+02
0.000106438    	(-5.7073101e-08 -2.4704398e-06 1.4575382e-06)	1.0000000e+05	2.9400000e+02
0.000106872    	(-5.9808021e-08 -2.4840904e-06 1.4597926e-06)	1.0000000e+05	2.9400000e+02
0.000107306    	(-5.8287070e-08 -2.5000026e-06 1.4821699e-06)	1.0000000e+05	2.9400000e+02
0.00010774     	(-6.6285486e-08 -2.5166079e-06 1.4981012e-06)	1.0000000e+05	2.9400000e+02
0.000108174    	(-5.8984143e-08 -2.5330239e-06 1.5087639e-06)	1.0000000e+05	2.9400000e+02
0.000108608    	(-6.8023331e-08 -2.5488226e-06 1.5185833e-06)	1.0000000e+05	2.9400000e+02
0.000109042    	(-7.3017497e-08 -2.5615239e-06 1.5230679e-06)	1.0000000e+05	2.9400000e+02
0.000109476    	(-7.1859093e-08 -2.5797580e-06 1.5529465e-06)	1.0000000e+05	2.9400000e+02
0.000109911    	(-7.7891222e-08 -2.5930934e-06 1.5557552e-06)	1.0000000e+05	2.9400000e+02
0.000110345    	(-8.4074581e-08 -2.6067992e-06 1.5388266e-06)	1.0000000e+05	2.9400000e+02
0.000110779    	(-8.1795117e-08 -2.6255964e-06 1.5627342e-06)	1.0000000e+05	2.9400000e+02
0.000111213    	(-9.3519938e-08 -2.6424777e-06 1.5739206e-06)	1.0000000e+05	2.9400000e+02
0.000111647    	(-1.0910435e-07 -2.6558796e-06 1.5781579e-06)	1.0000000e+05	2.9400000e+02
0.000112081    	(-9.3358372e-08 -2.6743469e-06 1.5905022e-06)	1.0000000e+05	2.9400000e+02
0.000112515    	(-1.0629909e-07 -2.6859212e-06 1.5945801e-06)	1.0000000e+05	2.9400000e+02
0.000112949    	(-1.1605368e-07 -2.6993546e-06 1.5991237e-06)	1.0000000e+05	2.9400000e+02
0.000113384    	(-1.1360526e-07 -2.7211776e-06 1.6283776e-06)	1.0000000e+05	2.9400000e+02
0.000113818    	(-1.1475236e-07 -2.7388064e-06 1.6229818e-06)	1.0000000e+05	2.9400000e+02
0.000114252    	(-1.1577307e-07 -2.7568849e-06 1.6233537e-06)	1.0000000e+05	2.9400000e+02
0.000114686    	(-1.1918325e-07 -2.7738609e-06 1.6393297e-06)	1.0000000e+05	2.9400000e+02
0.00011512     	(-1.2776739e-07 -2.7898323e-06 1.6495474e-06)	1.0000000e+05	2.9400000e+02
0.000115554    	(-1.2754866e-07 -2.8129523e-06 1.6670183e-06)	1.0000000e+05	2.9400000e+02
0.000115988    	(-1.2947563e-07 -2.8262963e-06 1.6561376e-06)	1.0000000e+05	2.9400000e+02
0.000116422    	(-1.4427487e-07 -2.8489298e-06 1.6698645e-06)	1.0000000e+05	2.9400000e+02
0.000116857    	(-1.4328979e-07 -2.8669441e-06 1.6912109e-06)	1.0000000e+05	2.9400000e+02
0.000117291    	(-1.5898916e-07 -2.8881923e-06 1.6976349e-06)	1.0000000e+05	2.9400000e+02
0.000117725    	(-1.7570122e-07 -2.9108164e-06 1.7048730e-06)	1.0000000e+05	2.9400000e+02
0.000118159    	(-1.6027663e-07 -2.9316233e-06 1.6997796e-06)	1.0000000e+05	2.9400000e+02
0.000118593    	(-1.7593112e-07 -2.9597094e-06 1.7098123e-06)	1.0000000e+05	2.9400000e+02
0.000119027    	(-1.8823895e-07 -2.9798219e-06 1.7105040e-06)	1.0000000e+05	2.9400000e+02
0.000119461    	(-1.9038333e-07 -3.0073027e-06 1.7362766e-06)	1.0000000e+05	2.9400000e+02
0.000119895    	(-1.9595466e-07 -3.0327043e-06 1.7265899e-06)	1.0000000e+05	2.9400000e+02
0.00012033     	(-2.1486623e-07 -3.0579766e-06 1.7327257e-06)	1.0000000e+05	2.9400000e+02
0.000120764    	(-2.1451143e-07 -3.0865291e-06 1.7536356e-06)	1.0000000e+05	2.9400000e+02
0.000121198    	(-2.3110760e-07 -3.1121290e-06 1.7555254e-06)	1.0000000e+05	2.9400000e+02
0.000121632    	(-2.3221536e-07 -3.1458755e-06 1.7713508e-06)	1.0000000e+05	2.9400000e+02
0.000122066    	(-2.4823238e-07 -3.1740460e-06 1.7646046e-06)	1.0000000e+05	2.9400000e+02
0.0001225      	(-2.6342436e-07 -3.2093015e-06 1.7745977e-06)	1.0000000e+05	2.9400000e+02
0.000122934    	(-2.6628594e-07 -3.2385636e-06 1.7900962e-06)	1.0000000e+05	2.9400000e+02
0.000123368    	(-2.7556508e-07 -3.2683919e-06 1.7797973e-06)	1.0000000e+05	2.9400000e+02
0.000123803    	(-2.9195259e-07 -3.3066908e-06 1.7868852e-06)	1.0000000e+05	2.9400000e+02
0.000124237    	(-2.8976665e-07 -3.3421231e-06 1.8086525e-06)	1.0000000e+05	2.9400000e+02
0.000124671    	(-3.1932913e-07 -3.3788375e-06 1.8077871e-06)	1.0000000e+05	2.9400000e+02
0.000125105    	(-3.3914230e-07 -3.4165810e-06 1.8147071e-06)	1.0000000e+05	2.9400000e+02
0.000125539    	(-3.4088824e-07 -3.4593284e-06 1.8152256e-06)	1.0000000e+05	2.9400000e+02
0.000125973    	(-3.7038514e-07 -3.5019656e-06 1.8143008e-06)	1.0000000e+05	2.9400000e+02
0.000126407    	(-3.9992649e-07 -3.5428647e-06 1.8173571e-06)	1.0000000e+05	2.9400000e+02
0.000126841    	(-4.0652834e-07 -3.5852905e-06 1.8297609e-06)	1.0000000e+05	2.9400000e+02
0.000127276    	(-4.3863248e-07 -3.6368885e-06 1.8260774e-06)	1.0000000e+05	2.9400000e+02
0.00012771     	(-4.6618029e-07 -3.6870724e-06 1.8226600e-06)	1.0000000e+05	2.9400000e+02
0.000128144    	(-4.9263517e-07 -3.7441153e-06 1.8421517e-06)	1.0000000e+05	2.9400000e+02
0.000128578    	(-5.2626706e-07 -3.7997237e-06 1.8448684e-06)	1.0000000e+05	2.9400000e+02
0.000129012    	(-5.4440572e-07 -3.8620156e-06 1.8500494e-06)	1.0000000e+05	2.9400000e+02
0.000129446    	(-5.7623432e-07 -3.9247031e-06 1.8423634e-06)	1.0000000e+05	2.9400000e+02
0.00012988     	(-6.1382511e-07 -3.9878270e-06 1.8415510e-06)	1.0000000e+05	2.9400000e+02
0.000130315    	(-6.4290266e-07 -4.0642300e-06 1.8649477e-06)	1.0000000e+05	2.9400000e+02
0.000130749    	(-6.8664887e-07 -4.1413860e-06 1.8450888e-06)	1.0000000e+05	2.9400000e+02
0.000131183    	(-7.2986020e-07 -4.2203179e-06 1.8525547e-06)	1.0000000e+05	2.9400000e+02
0.000131617    	(-7.6049301e-07 -4.3024626e-06 1.8643094e-06)	1.0000000e+05	2.9400000e+02
0.000132051    	(-8.2535347e-07 -4.3960113e-06 1.8682141e-06)	1.0000000e+05	2.9400000e+02
0.000132485    	(-8.7590738e-07 -4.4945061e-06 1.8806104e-06)	1.0000000e+05	2.9400000e+02
0.000132919    	(-9.0905114e-07 -4.5955309e-06 1.8762773e-06)	1.0000000e+05	2.9400000e+02
0.000133353    	(-9.7187992e-07 -4.6955934e-06 1.8672682e-06)	1.0000000e+05	2.9400000e+02
0.000133788    	(-1.0194536e-06 -4.8058869e-06 1.8735440e-06)	1.0000000e+05	2.9400000e+02
0.000134222    	(-1.0763062e-06 -4.9176271e-06 1.8699254e-06)	1.0000000e+05	2.9400000e+02
0.000134656    	(-1.1528539e-06 -5.0495694e-06 1.8740826e-06)	1.0000000e+05	2.9400000e+02
0.00013509     	(-1.2070189e-06 -5.1836379e-06 1.8724925e-06)	1.0000000e+05	2.9400000e+02
0.000135524    	(-1.2851190e-06 -5.3210342e-06 1.8662503e-06)	1.0000000e+05	2.9400000e+02
0.000135958    	(-1.3680778e-06 -5.4716856e-06 1.8549992e-06)	1.0000000e+05	2.9400000e+02
0.000136392    	(-1.4341166e-06 -5.6339444e-06 1.8691974e-06)	1.0000000e+05	2.9400000e+02
0.000136826    	(-1.5249260e-06 -5.8003895e-06 1.8448097e-06)	1.0000000e+05	2.9400000e+02
0.000137261    	(-1.6163296e-06 -5.9733227e-06 1.8179503e-06)	1.0000000e+05	2.9400000e+02
0.000137695    	(-1.7175900e-06 -6.1695921e-06 1.8318504e-06)	1.0000000e+05	2.9400000e+02
0.000138129    	(-1.8361031e-06 -6.3828955e-06 1.8263934e-06)	1.0000000e+05	2.9400000e+02
0.000138563    	(-1.9384008e-06 -6.5983217e-06 1.8182268e-06)	1.0000000e+05	2.9400000e+02
0.000138997    	(-2.0527999e-06 -6.8186441e-06 1.8000639e-06)	1.0000000e+05	2.9400000e+02
0.000139431    	(-2.1781614e-06 -7.0609312e-06 1.7801975e-06)	1.0000000e+05	2.9400000e+02
0.000139865    	(-2.2868831e-06 -7.3103618e-06 1.7546573e-06)	1.0000000e+05	2.9400000e+02
0.000140299    	(-2.4296032e-06 -7.5896961e-06 1.7109745e-06)	1.0000000e+05	2.9400000e+02
0.000140734    	(-2.6121230e-06 -7.8887392e-06 1.7418575e-06)	1.0000000e+05	2.9400000e+02
0.000141168    	(-2.7614972e-06 -8.1912742e-06 1.7213371e-06)	1.0000000e+05	2.9400000e+02
0.000141602    	(-2.9365434e-06 -8.5239302e-06 1.6544386e-06)	1.0000000e+05	2.9400000e+02
0.000142036    	(-3.0964394e-06 -8.8504521e-06 1.6232162e-06)	1.0000000e+05	2.9400000e+02
0.00014247     	(-3.2936167e-06 -9.2332266e-06 1.6390338e-06)	1.0000000e+05	2.9400000e+02
0.000142904    	(-3.5247750e-06 -9.6403095e-06 1.6066647e-06)	1.0000000e+05	2.9400000e+02
0.000143338    	(-3.7281727e-06 -1.0082974e-05 1.5666631e-06)	1.0000000e+05	2.9400000e+02
0.000143772    	(-4.0025187e-06 -1.0555900e-05 1.6059492e-06)	1.0000000e+05	2.9400000e+02
0.000144207    	(-4.2910292e-06 -1.1055313e-05 1.5695310e-06)	1.0000000e+05	2.9400000e+02