# Region type : patch inlet
# Faces  :     778
# Area   :     6.2874094e-05
# Time         	sum(phi)
0.088          	-2.2678040e-03
0.0880001      	-2.2795355e-03
0.0880005      	-2.3272980e-03
0.0880009      	-2.3657002e-03
0.0880013      	-2.3932302e-03
0.0880016      	-2.4086598e-03
0.088002       	-2.4104878e-03
0.0880024      	-2.3982122e-03
0.0880028      	-2.3713931e-03
0.0880032      	-2.3286170e-03
0.0880035      	-2.2685674e-03
0.0880039      	-2.1920314e-03
0.0880043      	-2.0999724e-03
0.0880047      	-1.9944341e-03
0.0880051      	-1.8786626e-03
0.0880055      	-1.7570976e-03
0.0880058      	-1.6346035e-03
0.0880062      	-1.5157278e-03
0.0880066      	-1.4037549e-03
0.088007       	-1.3004468e-03
0.0880074      	-1.2078684e-03
0.0880077      	-1.1259769e-03
0.0880081      	-1.0551387e-03
0.0880085      	-9.9549526e-04
0.0880089      	-9.4505387e-04
0.0880093      	-9.0363582e-04
0.0880096      	-8.6988223e-04
0.08801        	-8.4209391e-04
0.0880104      	-8.1778764e-04
0.0880108      	-7.9523320e-04
0.0880112      	-7.7251292e-04
0.0880115      	-7.4932738e-04
0.0880119      	-7.2568397e-04
0.0880123      	-7.0084914e-04
0.0880127      	-6.7746754e-04
0.0880131      	-6.5678487e-04
0.0880134      	-6.4011358e-04
0.0880138      	-6.2835959e-04
0.0880142      	-6.2255429e-04
0.0880146      	-6.2493233e-04
0.088015       	-6.3667923e-04
0.0880154      	-6.5981028e-04
0.0880157      	-6.9502826e-04
0.0880161      	-7.4249018e-04
0.0880165      	-8.0007046e-04
0.0880169      	-8.6669440e-04
0.0880173      	-9.4108649e-04
0.0880176      	-1.0214367e-03
0.088018       	-1.1064984e-03
0.0880184      	-1.1944487e-03
0.0880188      	-1.2834193e-03
0.0880192      	-1.3712594e-03
0.0880195      	-1.4563548e-03
0.0880199      	-1.5379906e-03
0.0880203      	-1.6158092e-03
0.0880207      	-1.6891516e-03
0.0880211      	-1.7578112e-03
0.0880214      	-1.8212401e-03
0.0880218      	-1.8794605e-03
0.0880222      	-1.9316082e-03
0.0880226      	-1.9775007e-03
0.088023       	-2.0169272e-03
0.0880233      	-2.0486452e-03
0.0880237      	-2.0720102e-03
0.0880241      	-2.0860494e-03
0.0880245      	-2.0910066e-03
0.0880249      	-2.0852872e-03
0.0880253      	-2.0690584e-03
0.0880256      	-2.0421303e-03
0.088026       	-2.0038478e-03
0.0880264      	-1.9545945e-03
0.0880268      	-1.8959460e-03
0.0880272      	-1.8297316e-03
0.0880275      	-1.7583060e-03
0.0880279      	-1.6850272e-03
0.0880283      	-1.6114413e-03
0.0880287      	-1.5386513e-03
0.0880291      	-1.4696642e-03
0.0880294      	-1.4058969e-03
0.0880298      	-1.3476692e-03
0.0880302      	-1.2944455e-03
0.0880306      	-1.2452647e-03
0.088031       	-1.1998721e-03
0.0880313      	-1.1577329e-03
0.0880317      	-1.1178581e-03
0.0880321      	-1.0773728e-03
0.0880325      	-1.0354038e-03
0.0880329      	-9.9164142e-04
0.0880332      	-9.4523162e-04
0.0880336      	-8.9717629e-04
0.088034       	-8.4822921e-04
0.0880344      	-7.9822811e-04
0.0880348      	-7.5116442e-04
0.0880352      	-7.0900858e-04
0.0880355      	-6.7105677e-04
0.0880359      	-6.4003336e-04
0.0880363      	-6.1682556e-04
0.0880367      	-6.0393913e-04
0.0880371      	-6.0048343e-04
0.0880374      	-6.0859410e-04
0.0880378      	-6.2812961e-04
0.0880382      	-6.6110855e-04
0.0880386      	-7.0700904e-04
0.088039       	-7.6410193e-04
0.0880393      	-8.3008714e-04
0.0880397      	-9.0290284e-04
0.0880401      	-9.8051990e-04
0.0880405      	-1.0610618e-03
0.0880409      	-1.1435268e-03
0.0880412      	-1.2281102e-03
0.0880416      	-1.3133070e-03
0.088042       	-1.3980079e-03
0.0880424      	-1.4807629e-03
0.0880428      	-1.5617886e-03
0.0880431      	-1.6403865e-03
0.0880435      	-1.7154651e-03
0.0880439      	-1.7866172e-03
0.0880443      	-1.8517144e-03
0.0880447      	-1.9095683e-03
0.0880451      	-1.9602424e-03
0.0880454      	-2.0040801e-03
0.0880458      	-2.0390876e-03
0.0880462      	-2.0647034e-03
0.0880466      	-2.0793862e-03
0.088047       	-2.0819477e-03
0.0880473      	-2.0729838e-03
0.0880477      	-2.0516753e-03
0.0880481      	-2.0174704e-03
0.0880485      	-1.9722793e-03
0.0880489      	-1.9194202e-03
0.0880492      	-1.8608053e-03
0.0880496      	-1.7985677e-03
0.08805        	-1.7340133e-03
0.0880504      	-1.6685666e-03
0.0880508      	-1.6053083e-03
0.0880511      	-1.5470863e-03
0.0880515      	-1.4949038e-03
0.0880519      	-1.4508972e-03
0.0880523      	-1.4137804e-03
0.0880527      	-1.3823223e-03
0.088053       	-1.3556045e-03
0.0880534      	-1.3315742e-03
0.0880538      	-1.3098466e-03
0.0880542      	-1.2871228e-03
0.0880546      	-1.2625392e-03
0.088055       	-1.2348314e-03
0.0880553      	-1.2025224e-03
0.0880557      	-1.1661166e-03
0.0880561      	-1.1249413e-03
0.0880565      	-1.0800219e-03
0.0880569      	-1.0333038e-03
0.0880572      	-9.8617605e-04
0.0880576      	-9.4144315e-04
0.088058       	-9.0074462e-04
0.0880584      	-8.6487341e-04
0.0880588      	-8.3707525e-04
0.0880591      	-8.1777897e-04
0.0880595      	-8.0956326e-04
0.0880599      	-8.1182574e-04
0.0880603      	-8.2752942e-04
0.0880607      	-8.5482207e-04
0.088061       	-8.9364257e-04
0.0880614      	-9.4160736e-04
0.0880618      	-9.9705902e-04
0.0880622      	-1.0582655e-03
0.0880626      	-1.1207169e-03
0.0880629      	-1.1832977e-03
0.0880633      	-1.2445490e-03
0.0880637      	-1.3050905e-03
0.0880641      	-1.3645818e-03
0.0880645      	-1.4227293e-03
0.0880648      	-1.4780054e-03
0.0880652      	-1.5308168e-03
0.0880656      	-1.5810791e-03
0.088066       	-1.6293193e-03
0.0880664      	-1.6744080e-03
0.0880668      	-1.7169997e-03
0.0880671      	-1.7547890e-03
0.0880675      	-1.7862330e-03
0.0880679      	-1.8115934e-03
0.0880683      	-1.8318258e-03
0.0880687      	-1.8465176e-03
0.088069       	-1.8549961e-03
0.0880694      	-1.8571140e-03
0.0880698      	-1.8527273e-03
0.0880702      	-1.8412387e-03
0.0880706      	-1.8226870e-03
0.0880709      	-1.7954433e-03
0.0880713      	-1.7602189e-03
0.0880717      	-1.7189456e-03
0.0880721      	-1.6734002e-03
0.0880725      	-1.6247590e-03
0.0880728      	-1.5760659e-03
0.0880732      	-1.5295589e-03
0.0880736      	-1.4862032e-03
0.088074       	-1.4458759e-03
0.0880744      	-1.4103342e-03
0.0880747      	-1.3805827e-03
0.0880751      	-1.3569346e-03
0.0880755      	-1.3384808e-03
0.0880759      	-1.3233498e-03
0.0880763      	-1.3094351e-03
0.0880767      	-1.2948312e-03
0.088077       	-1.2774189e-03
0.0880774      	-1.2555478e-03
0.0880778      	-1.2276048e-03
0.0880782      	-1.1938501e-03
0.0880786      	-1.1533752e-03
0.0880789      	-1.1082714e-03
0.0880793      	-1.0598761e-03
0.0880797      	-1.0101978e-03
0.0880801      	-9.5948035e-04
0.0880805      	-9.1081132e-04
0.0880808      	-8.6683988e-04
0.0880812      	-8.2965821e-04
0.0880816      	-8.0222469e-04
0.088082       	-7.8418702e-04
0.0880824      	-7.7804829e-04
0.0880827      	-7.8372186e-04
0.0880831      	-8.0411946e-04
0.0880835      	-8.3762521e-04
0.0880839      	-8.8109827e-04
0.0880843      	-9.3507469e-04
0.0880846      	-9.9793618e-04
0.088085       	-1.0692566e-03
0.0880854      	-1.1472332e-03
0.0880858      	-1.2301164e-03
0.0880862      	-1.3163292e-03
0.0880866      	-1.4029926e-03
0.0880869      	-1.4888665e-03
0.0880873      	-1.5728432e-03
0.0880877      	-1.6535395e-03
0.0880881      	-1.7296023e-03
0.0880885      	-1.7995308e-03
0.0880888      	-1.8626549e-03
0.0880892      	-1.9175409e-03
0.0880896      	-1.9635238e-03
0.08809        	-2.0007003e-03
0.0880904      	-2.0281951e-03
0.0880907      	-2.0456976e-03
0.0880911      	-2.0535977e-03
0.0880915      	-2.0523039e-03
0.0880919      	-2.0411827e-03
0.0880923      	-2.0194802e-03
0.0880926      	-1.9857286e-03
0.088093       	-1.9400155e-03
0.0880934      	-1.8832784e-03
0.0880938      	-1.8165007e-03
0.0880942      	-1.7414435e-03
0.0880945      	-1.6614905e-03
0.0880949      	-1.5788733e-03
0.0880953      	-1.4953469e-03
0.0880957      	-1.4120114e-03
0.0880961      	-1.3317446e-03
0.0880965      	-1.2559029e-03
0.0880968      	-1.1863482e-03
0.0880972      	-1.1236783e-03
0.0880976      	-1.0681556e-03
0.088098       	-1.0211382e-03
0.0880984      	-9.8057984e-04
0.0880987      	-9.4610913e-04
0.0880991      	-9.1599437e-04
0.0880995      	-8.8794396e-04
0.0880999      	-8.6063506e-04
0.0881003      	-8.3226732e-04
0.0881006      	-8.0281035e-04
0.088101       	-7.7281854e-04
0.0881014      	-7.4524752e-04
0.0881018      	-7.1809039e-04
0.0881022      	-6.9516067e-04
0.0881025      	-6.7573259e-04
0.0881029      	-6.6132193e-04
0.0881033      	-6.5207487e-04
0.0881037      	-6.4944843e-04
0.0881041      	-6.5549485e-04
0.0881044      	-6.7116219e-04
0.0881048      	-6.9718271e-04
0.0881052      	-7.3434381e-04
0.0881056      	-7.8120608e-04
0.088106       	-8.3594495e-04
0.0881064      	-8.9678275e-04
0.0881067      	-9.6248065e-04
0.0881071      	-1.0327918e-03
0.0881075      	-1.1070844e-03
0.0881079      	-1.1845455e-03
0.0881083      	-1.2627442e-03
0.0881086      	-1.3409972e-03
0.088109       	-1.4176632e-03
0.0881094      	-1.4925467e-03
0.0881098      	-1.5637873e-03
0.0881102      	-1.6317935e-03
0.0881105      	-1.6969171e-03
0.0881109      	-1.7584387e-03
0.0881113      	-1.8158133e-03
0.0881117      	-1.8682740e-03
0.0881121      	-1.9142876e-03
0.0881124      	-1.9538935e-03
0.0881128      	-1.9860755e-03
0.0881132      	-2.0099661e-03
0.0881136      	-2.0251343e-03
0.088114       	-2.0307396e-03
0.0881143      	-2.0246719e-03
0.0881147      	-2.0062727e-03
0.0881151      	-1.9759013e-03
0.0881155      	-1.9326631e-03
0.0881159      	-1.8782482e-03
0.0881163      	-1.8152096e-03
0.0881166      	-1.7462684e-03
0.088117       	-1.6733337e-03
0.0881174      	-1.5990886e-03
0.0881178      	-1.5245731e-03
0.0881182      	-1.4538864e-03
0.0881185      	-1.3891158e-03
0.0881189      	-1.3297552e-03
0.0881193      	-1.2787825e-03
0.0881197      	-1.2351857e-03
0.0881201      	-1.1993094e-03
0.0881204      	-1.1703887e-03
0.0881208      	-1.1465382e-03
0.0881212      	-1.1256175e-03
0.0881216      	-1.1064940e-03
0.088122       	-1.0866275e-03
0.0881223      	-1.0650870e-03
0.0881227      	-1.0405517e-03
0.0881231      	-1.0131732e-03
0.0881235      	-9.8340130e-04
0.0881239      	-9.5259076e-04
0.0881242      	-9.2245471e-04
0.0881246      	-8.9432295e-04
0.088125       	-8.7005079e-04
0.0881254      	-8.5134781e-04
0.0881258      	-8.4008899e-04
0.0881262      	-8.3715600e-04
0.0881265      	-8.4443431e-04
0.0881269      	-8.6416675e-04
0.0881273      	-8.9552935e-04
0.0881277      	-9.3916866e-04
0.0881281      	-9.9404770e-04
0.0881284      	-1.0572908e-03
0.0881288      	-1.1259563e-03
0.0881292      	-1.1973056e-03
0.0881296      	-1.2706257e-03
0.08813        	-1.3443369e-03
0.0881303      	-1.4179611e-03
0.0881307      	-1.4904470e-03
0.0881311      	-1.5597048e-03
0.0881315      	-1.6253419e-03
0.0881319      	-1.6863655e-03
0.0881322      	-1.7442522e-03
0.0881326      	-1.7981305e-03
0.088133       	-1.8477675e-03
0.0881334      	-1.8940542e-03
0.0881338      	-1.9358129e-03
0.0881341      	-1.9729030e-03
0.0881345      	-2.0046152e-03
0.0881349      	-2.0302553e-03
0.0881353      	-2.0496586e-03
0.0881357      	-2.0613806e-03
0.0881361      	-2.0648801e-03
0.0881364      	-2.0584903e-03
0.0881368      	-2.0410347e-03
0.0881372      	-2.0132745e-03
0.0881376      	-1.9735690e-03
0.088138       	-1.9216159e-03
0.0881383      	-1.8575290e-03
0.0881387      	-1.7844349e-03
0.0881391      	-1.7049293e-03
0.0881395      	-1.6222511e-03
0.0881399      	-1.5410015e-03
0.0881402      	-1.4643014e-03
0.0881406      	-1.3932578e-03
0.088141       	-1.3282654e-03
0.0881414      	-1.2698549e-03
0.0881418      	-1.2192469e-03
0.0881421      	-1.1759244e-03
0.0881425      	-1.1393122e-03
0.0881429      	-1.1085526e-03
0.0881433      	-1.0820137e-03
0.0881437      	-1.0584508e-03
0.088144       	-1.0367039e-03
0.0881444      	-1.0154383e-03
0.0881448      	-9.9310078e-04
0.0881452      	-9.6843814e-04
0.0881456      	-9.4177341e-04
0.088146       	-9.1356657e-04
0.0881463      	-8.8657636e-04
0.0881467      	-8.6154771e-04
0.0881471      	-8.4042732e-04
0.0881475      	-8.2480968e-04
0.0881479      	-8.1735939e-04
0.0881482      	-8.1743404e-04
0.0881486      	-8.2685714e-04
0.088149       	-8.4729839e-04
0.0881494      	-8.7857390e-04
0.0881498      	-9.2154379e-04
0.0881501      	-9.7469656e-04
0.0881505      	-1.0368028e-03
0.0881509      	-1.1061738e-03
0.0881513      	-1.1804296e-03
0.0881517      	-1.2567886e-03
0.088152       	-1.3338866e-03
0.0881524      	-1.4106364e-03
0.0881528      	-1.4858204e-03
0.0881532      	-1.5581053e-03
0.0881536      	-1.6267046e-03
0.0881539      	-1.6917831e-03
0.0881543      	-1.7524799e-03
0.0881547      	-1.8096294e-03
0.0881551      	-1.8634441e-03
0.0881555      	-1.9140726e-03
0.0881559      	-1.9601076e-03
0.0881562      	-2.0015438e-03
0.0881566      	-2.0385230e-03
0.088157       	-2.0689100e-03
0.0881574      	-2.0925385e-03
0.0881578      	-2.1086150e-03
0.0881581      	-2.1166306e-03
0.0881585      	-2.1157569e-03
0.0881589      	-2.1047861e-03
0.0881593      	-2.0842067e-03
0.0881597      	-2.0532225e-03
0.08816        	-2.0107541e-03
0.0881604      	-1.9570861e-03
0.0881608      	-1.8925879e-03
0.0881612      	-1.8196846e-03
0.0881616      	-1.7415923e-03
0.0881619      	-1.6626992e-03
0.0881623      	-1.5864538e-03
0.0881627      	-1.5144915e-03
0.0881631      	-1.4485373e-03
0.0881635      	-1.3897351e-03
0.0881638      	-1.3382714e-03
0.0881642      	-1.2939423e-03
0.0881646      	-1.2551021e-03
0.088165       	-1.2220658e-03
0.0881654      	-1.1922847e-03
0.0881658      	-1.1641109e-03
0.0881661      	-1.1353093e-03
0.0881665      	-1.1037573e-03
0.0881669      	-1.0695756e-03
0.0881673      	-1.0312150e-03
0.0881677      	-9.8858407e-04
0.088168       	-9.4261865e-04
0.0881684      	-8.9596344e-04
0.0881688      	-8.4913965e-04
0.0881692      	-8.0619387e-04
0.0881696      	-7.6651733e-04
0.0881699      	-7.3249460e-04
0.0881703      	-7.0417607e-04
0.0881707      	-6.8400860e-04
0.0881711      	-6.7170485e-04
0.0881715      	-6.7041758e-04
0.0881718      	-6.7998832e-04
0.0881722      	-7.0224585e-04
0.0881726      	-7.3535329e-04
0.088173       	-7.7824455e-04
0.0881734      	-8.3027879e-04
0.0881737      	-8.8888857e-04
0.0881741      	-9.5091878e-04
0.0881745      	-1.0161062e-03
0.0881749      	-1.0844884e-03
0.0881753      	-1.1558921e-03
0.0881757      	-1.2294716e-03
0.088176       	-1.3047869e-03
0.0881764      	-1.3802120e-03
0.0881768      	-1.4553105e-03
0.0881772      	-1.5290497e-03
0.0881776      	-1.6014134e-03
0.0881779      	-1.6704377e-03
0.0881783      	-1.7348324e-03
0.0881787      	-1.7945863e-03
0.0881791      	-1.8482714e-03
0.0881795      	-1.8962438e-03
0.0881798      	-1.9383120e-03
0.0881802      	-1.9740515e-03
0.0881806      	-2.0020191e-03
0.088181       	-2.0211545e-03
0.0881814      	-2.0305950e-03
0.0881817      	-2.0293600e-03
0.0881821      	-2.0164011e-03
0.0881825      	-1.9907960e-03
0.0881829      	-1.9527558e-03
0.0881833      	-1.9047645e-03
0.0881836      	-1.8492037e-03
0.088184       	-1.7879724e-03
0.0881844      	-1.7229716e-03
0.0881848      	-1.6561117e-03
0.0881852      	-1.5903637e-03
0.0881856      	-1.5271863e-03
0.0881859      	-1.4668373e-03
0.0881863      	-1.4120523e-03
0.0881867      	-1.3629818e-03
0.0881871      	-1.3200253e-03
0.0881875      	-1.2830032e-03
0.0881878      	-1.2504271e-03
0.0881882      	-1.2206810e-03
0.0881886      	-1.1922776e-03
0.088189       	-1.1640786e-03
0.0881894      	-1.1344452e-03
0.0881897      	-1.1028053e-03
0.0881901      	-1.0690130e-03
0.0881905      	-1.0342261e-03
0.0881909      	-1.0004259e-03
0.0881913      	-9.6894117e-04
0.0881916      	-9.4077856e-04
0.088192       	-9.1675342e-04
0.0881924      	-8.9938067e-04
0.0881928      	-8.8864705e-04
0.0881932      	-8.8592355e-04
0.0881936      	-8.9188849e-04
0.0881939      	-9.0872773e-04
0.0881943      	-9.3613239e-04
0.0881947      	-9.7363654e-04
0.0881951      	-1.0185229e-03
0.0881955      	-1.0710297e-03
0.0881958      	-1.1284612e-03
0.0881962      	-1.1895937e-03
0.0881966      	-1.2540879e-03
0.088197       	-1.3219963e-03
0.0881974      	-1.3919485e-03
0.0881977      	-1.4627191e-03
0.0881981      	-1.5323019e-03
0.0881985      	-1.5999624e-03
0.0881989      	-1.6653667e-03
0.0881993      	-1.7276021e-03
0.0881996      	-1.7855800e-03
0.0882         	-1.8383212e-03
0.0882004      	-1.8853539e-03
0.0882008      	-1.9261587e-03
0.0882012      	-1.9589400e-03
0.0882015      	-1.9832666e-03
0.0882019      	-1.9985017e-03
0.0882023      	-2.0046839e-03
0.0882027      	-2.0012646e-03
0.0882031      	-1.9883001e-03
0.0882034      	-1.9662149e-03
0.0882038      	-1.9346488e-03
0.0882042      	-1.8935043e-03
0.0882046      	-1.8437801e-03
0.088205       	-1.7853677e-03
0.0882054      	-1.7200907e-03
0.0882057      	-1.6512144e-03
0.0882061      	-1.5814224e-03
0.0882065      	-1.5118837e-03
0.0882069      	-1.4443566e-03
0.0882073      	-1.3794516e-03
0.0882076      	-1.3184538e-03
0.088208       	-1.2621725e-03
0.0882084      	-1.2113494e-03
0.0882088      	-1.1673186e-03
0.0882092      	-1.1293243e-03
0.0882095      	-1.0970207e-03
0.0882099      	-1.0703801e-03
0.0882103      	-1.0470812e-03
0.0882107      	-1.0251799e-03
0.0882111      	-1.0032728e-03
0.0882114      	-9.7951976e-04
0.0882118      	-9.5290971e-04
0.0882122      	-9.2341922e-04
0.0882126      	-8.9177094e-04
0.088213       	-8.5917352e-04
0.0882134      	-8.2802058e-04
0.0882137      	-8.0163071e-04
0.0882141      	-7.7961533e-04
0.0882145      	-7.6458609e-04
0.0882149      	-7.5776067e-04
0.0882153      	-7.5936430e-04
0.0882156      	-7.7132085e-04
0.088216       	-7.9396946e-04
0.0882164      	-8.2834319e-04
0.0882168      	-8.7531690e-04
0.0882172      	-9.3366189e-04
0.0882175      	-9.9959019e-04
0.0882179      	-1.0710452e-03
0.0882183      	-1.1468451e-03
0.0882187      	-1.2257380e-03
0.0882191      	-1.3070965e-03
0.0882194      	-1.3888784e-03
0.0882198      	-1.4690963e-03
0.0882202      	-1.5463192e-03
0.0882206      	-1.6189265e-03
0.088221       	-1.6870408e-03
0.0882213      	-1.7504223e-03
0.0882217      	-1.8092426e-03
0.0882221      	-1.8636385e-03
0.0882225      	-1.9131052e-03
0.0882229      	-1.9572382e-03
0.0882232      	-1.9960021e-03
0.0882236      	-2.0289467e-03
0.088224       	-2.0552051e-03
0.0882244      	-2.0736602e-03
0.0882248      	-2.0835709e-03
0.0882252      	-2.0836770e-03
0.0882255      	-2.0728247e-03
0.0882259      	-2.0502532e-03
0.0882263      	-2.0156468e-03
0.0882267      	-1.9684001e-03
0.0882271      	-1.9084288e-03
0.0882274      	-1.8359676e-03
0.0882278      	-1.7532990e-03
0.0882282      	-1.6632375e-03
0.0882286      	-1.5695685e-03
0.088229       	-1.4762102e-03
0.0882293      	-1.3876624e-03
0.0882297      	-1.3054859e-03
0.0882301      	-1.2306032e-03
0.0882305      	-1.1637316e-03
0.0882309      	-1.1056932e-03
0.0882312      	-1.0560635e-03
0.0882316      	-1.0149707e-03
0.088232       	-9.8125719e-04
0.0882324      	-9.5347672e-04
0.0882328      	-9.3075122e-04
0.0882332      	-9.0915977e-04
0.0882335      	-8.8886581e-04
0.0882339      	-8.6802140e-04
0.0882343      	-8.4531931e-04
0.0882347      	-8.2215370e-04
0.0882351      	-7.9787188e-04
0.0882354      	-7.7406248e-04
0.0882358      	-7.5241941e-04
0.0882362      	-7.3403115e-04
0.0882366      	-7.2219634e-04
0.088237       	-7.1638119e-04
0.0882373      	-7.1937595e-04
0.0882377      	-7.3171791e-04
0.0882381      	-7.5471040e-04
0.0882385      	-7.8929360e-04
0.0882389      	-8.3694217e-04
0.0882392      	-8.9679813e-04
0.0882396      	-9.6808383e-04
0.08824        	-1.0487502e-03
0.0882404      	-1.1364090e-03
0.0882408      	-1.2291811e-03
0.0882411      	-1.3257941e-03
0.0882415      	-1.4241765e-03
0.0882419      	-1.5223292e-03
0.0882423      	-1.6172444e-03
0.0882427      	-1.7077848e-03
0.088243       	-1.7921754e-03
0.0882434      	-1.8705671e-03
0.0882438      	-1.9422846e-03
0.0882442      	-2.0067631e-03
0.0882446      	-2.0644128e-03
0.088245       	-2.1144644e-03
0.0882453      	-2.1572992e-03
0.0882457      	-2.1929606e-03
0.0882461      	-2.2201744e-03
0.0882465      	-2.2377428e-03
0.0882469      	-2.2445966e-03
0.0882472      	-2.2404331e-03
0.0882476      	-2.2251696e-03
0.088248       	-2.1981817e-03
0.0882484      	-2.1595197e-03
0.0882488      	-2.1077147e-03
0.0882491      	-2.0421114e-03
0.0882495      	-1.9632607e-03
0.0882499      	-1.8722902e-03
0.0882503      	-1.7714877e-03
0.0882507      	-1.6655081e-03
0.088251       	-1.5588543e-03
0.0882514      	-1.4549980e-03
0.0882518      	-1.3566862e-03
0.0882522      	-1.2658090e-03
0.0882526      	-1.1841344e-03
0.088253       	-1.1116841e-03
0.0882533      	-1.0483039e-03
0.0882537      	-9.9365953e-04
0.0882541      	-9.4690791e-04
0.0882545      	-9.0637574e-04
0.0882549      	-8.7194567e-04
0.0882552      	-8.4148512e-04
0.0882556      	-8.1457129e-04
0.088256       	-7.8874782e-04
0.0882564      	-7.6273736e-04
0.0882568      	-7.3726435e-04
0.0882571      	-7.1278788e-04
0.0882575      	-6.8979615e-04
0.0882579      	-6.6962789e-04
0.0882583      	-6.5334239e-04
0.0882587      	-6.4133298e-04
0.088259       	-6.3511982e-04
0.0882594      	-6.3555440e-04
0.0882598      	-6.4402964e-04
0.0882602      	-6.5993467e-04
0.0882606      	-6.8597042e-04
0.0882609      	-7.2325099e-04
0.0882613      	-7.7157560e-04
0.0882617      	-8.2929458e-04
0.0882621      	-8.9463575e-04
0.0882625      	-9.6647827e-04
0.0882628      	-1.0426292e-03
0.0882632      	-1.1213123e-03
0.0882636      	-1.2019535e-03
0.088264       	-1.2838849e-03
0.0882644      	-1.3656939e-03
0.0882648      	-1.4469098e-03
0.0882651      	-1.5266834e-03
0.0882655      	-1.6042234e-03
0.0882659      	-1.6787254e-03
0.0882663      	-1.7496460e-03
0.0882667      	-1.8166140e-03
0.088267       	-1.8786365e-03
0.0882674      	-1.9355825e-03
0.0882678      	-1.9857075e-03
0.0882682      	-2.0288493e-03
0.0882686      	-2.0652229e-03
0.0882689      	-2.0939945e-03
0.0882693      	-2.1141155e-03
0.0882697      	-2.1250934e-03
0.0882701      	-2.1255195e-03
0.0882705      	-2.1145330e-03
0.0882708      	-2.0912501e-03
0.0882712      	-2.0564549e-03
0.0882716      	-2.0126262e-03
0.088272       	-1.9624302e-03
0.0882724      	-1.9075261e-03
0.0882728      	-1.8489430e-03
0.0882731      	-1.7881865e-03
0.0882735      	-1.7265185e-03
0.0882739      	-1.6670281e-03
0.0882743      	-1.6108518e-03
0.0882747      	-1.5590420e-03
0.088275       	-1.5127347e-03
0.0882754      	-1.4691514e-03
0.0882758      	-1.4280788e-03
0.0882762      	-1.3892746e-03
0.0882766      	-1.3500135e-03
0.0882769      	-1.3094034e-03
0.0882773      	-1.2669606e-03
0.0882777      	-1.2203417e-03
0.0882781      	-1.1698923e-03
0.0882785      	-1.1161114e-03
0.0882788      	-1.0582612e-03
0.0882792      	-9.9764235e-04
0.0882796      	-9.3451399e-04
0.08828        	-8.7230967e-04
0.0882804      	-8.1293254e-04
0.0882807      	-7.5835609e-04
0.0882811      	-7.0945735e-04
0.0882815      	-6.6824984e-04
0.0882819      	-6.3640633e-04
0.0882823      	-6.1550229e-04
0.0882826      	-6.0772989e-04
0.088283       	-6.1257269e-04
0.0882834      	-6.3083585e-04
0.0882838      	-6.6116300e-04
0.0882842      	-7.0360629e-04
0.0882846      	-7.5594246e-04
0.0882849      	-8.1476008e-04
0.0882853      	-8.7701578e-04
0.0882857      	-9.4129734e-04
0.0882861      	-1.0067573e-03
0.0882865      	-1.0732155e-03
0.0882868      	-1.1409379e-03
0.0882872      	-1.2090596e-03
0.0882876      	-1.2758691e-03
0.088288       	-1.3409522e-03
0.0882884      	-1.4059982e-03
0.0882887      	-1.4695578e-03
0.0882891      	-1.5325021e-03
0.0882895      	-1.5918398e-03
0.0882899      	-1.6480294e-03
0.0882903      	-1.6977681e-03
0.0882906      	-1.7420072e-03
0.088291       	-1.7804996e-03
0.0882914      	-1.8127003e-03
0.0882918      	-1.8379474e-03
0.0882922      	-1.8561770e-03
0.0882925      	-1.8659426e-03
0.0882929      	-1.8671993e-03
0.0882933      	-1.8620534e-03
0.0882937      	-1.8494356e-03
0.0882941      	-1.8288884e-03
0.0882945      	-1.8010334e-03
0.0882948      	-1.7673959e-03
0.0882952      	-1.7294087e-03
0.0882956      	-1.6893813e-03
0.088296       	-1.6492750e-03
0.0882964      	-1.6102024e-03
0.0882967      	-1.5731481e-03
0.0882971      	-1.5386854e-03
0.0882975      	-1.5079846e-03
0.0882979      	-1.4817729e-03
0.0882983      	-1.4595648e-03
0.0882986      	-1.4412116e-03
0.088299       	-1.4240707e-03
0.0882994      	-1.4066705e-03
0.0882998      	-1.3879491e-03
0.0883002      	-1.3657168e-03
0.0883005      	-1.3384534e-03
0.0883009      	-1.3058791e-03
0.0883013      	-1.2679242e-03
0.0883017      	-1.2253118e-03
0.0883021      	-1.1795566e-03
0.0883024      	-1.1326642e-03
0.0883028      	-1.0868485e-03
0.0883032      	-1.0438908e-03
0.0883036      	-1.0052178e-03
0.088304       	-9.7467259e-04
0.0883044      	-9.5248514e-04
0.0883047      	-9.3994732e-04
0.0883051      	-9.3930974e-04
0.0883055      	-9.4995514e-04
0.0883059      	-9.7297833e-04
0.0883063      	-1.0065015e-03
0.0883066      	-1.0506694e-03
0.088307       	-1.1037813e-03
0.0883074      	-1.1624347e-03
0.0883078      	-1.2235707e-03
0.0883082      	-1.2862678e-03
0.0883085      	-1.3496479e-03
0.0883089      	-1.4134580e-03
0.0883093      	-1.4775013e-03
0.0883097      	-1.5401139e-03
0.0883101      	-1.5999342e-03
0.0883104      	-1.6560625e-03
0.0883108      	-1.7084194e-03
0.0883112      	-1.7567720e-03
0.0883116      	-1.8013901e-03
0.088312       	-1.8404312e-03
0.0883123      	-1.8727791e-03
0.0883127      	-1.8994110e-03
0.0883131      	-1.9178168e-03
0.0883135      	-1.9289439e-03
0.0883139      	-1.9336218e-03
0.0883143      	-1.9320909e-03
0.0883146      	-1.9240882e-03
0.088315       	-1.9092385e-03
0.0883154      	-1.8859588e-03
0.0883158      	-1.8540937e-03
0.0883162      	-1.8137391e-03
0.0883165      	-1.7648713e-03
0.0883169      	-1.7083608e-03
0.0883173      	-1.6468138e-03
0.0883177      	-1.5833637e-03
0.0883181      	-1.5204736e-03
0.0883184      	-1.4588941e-03
0.0883188      	-1.3999250e-03
0.0883192      	-1.3448718e-03
0.0883196      	-1.2954478e-03
0.08832        	-1.2512315e-03
0.0883203      	-1.2133683e-03
0.0883207      	-1.1807551e-03
0.0883211      	-1.1525008e-03
0.0883215      	-1.1276353e-03
0.0883219      	-1.1041042e-03
0.0883222      	-1.0803524e-03
0.0883226      	-1.0544341e-03
0.088323       	-1.0249537e-03
0.0883234      	-9.9090289e-04
0.0883238      	-9.5287293e-04
0.0883242      	-9.1215072e-04
0.0883245      	-8.6905689e-04
0.0883249      	-8.2623849e-04
0.0883253      	-7.8425323e-04
0.0883257      	-7.4616982e-04
0.0883261      	-7.1222727e-04
0.0883264      	-6.8455288e-04
0.0883268      	-6.6460417e-04
0.0883272      	-6.5471905e-04
0.0883276      	-6.5597526e-04
0.088328       	-6.6981387e-04
0.0883283      	-6.9583773e-04
0.0883287      	-7.3530647e-04
0.0883291      	-7.8567151e-04
0.0883295      	-8.4499833e-04
0.0883299      	-9.1134337e-04
0.0883302      	-9.8489914e-04
0.0883306      	-1.0649653e-03
0.088331       	-1.1502899e-03
0.0883314      	-1.2383203e-03
0.0883318      	-1.3271041e-03
0.0883321      	-1.4150629e-03
0.0883325      	-1.5011505e-03
0.0883329      	-1.5839215e-03
0.0883333      	-1.6626920e-03
0.0883337      	-1.7365485e-03
0.088334       	-1.8043482e-03
0.0883344      	-1.8664456e-03
0.0883348      	-1.9223696e-03
0.0883352      	-1.9710064e-03
0.0883356      	-2.0120368e-03
0.088336       	-2.0447049e-03
0.0883363      	-2.0689974e-03
0.0883367      	-2.0837609e-03
0.0883371      	-2.0876543e-03
0.0883375      	-2.0797038e-03
0.0883379      	-2.0582136e-03
0.0883382      	-2.0218568e-03
0.0883386      	-1.9710164e-03
0.088339       	-1.9071562e-03
0.0883394      	-1.8329888e-03
0.0883398      	-1.7516806e-03
0.0883401      	-1.6655231e-03
0.0883405      	-1.5761015e-03
0.0883409      	-1.4859741e-03
0.0883413      	-1.3989031e-03
0.0883417      	-1.3166428e-03
0.088342       	-1.2392405e-03
0.0883424      	-1.1694163e-03
0.0883428      	-1.1069752e-03
0.0883432      	-1.0519056e-03
0.0883436      	-1.0040226e-03
0.088344       	-9.6211390e-04
0.0883443      	-9.2520102e-04
0.0883447      	-8.9303912e-04
0.0883451      	-8.6250594e-04
0.0883455      	-8.3191034e-04
0.0883459      	-8.0167286e-04
0.0883462      	-7.7208833e-04
0.0883466      	-7.4313131e-04
0.088347       	-7.1640777e-04
0.0883474      	-6.9371919e-04
0.0883478      	-6.7505966e-04
0.0883481      	-6.6230489e-04
0.0883485      	-6.5634741e-04
0.0883489      	-6.5797695e-04
0.0883493      	-6.6936963e-04
0.0883497      	-6.9144348e-04
0.08835        	-7.2572647e-04
0.0883504      	-7.7249062e-04
0.0883508      	-8.2896349e-04
0.0883512      	-8.9231919e-04
0.0883516      	-9.6104371e-04
0.0883519      	-1.0348632e-03
0.0883523      	-1.1134497e-03
0.0883527      	-1.1955999e-03
0.0883531      	-1.2793971e-03
0.0883535      	-1.3627356e-03
0.0883538      	-1.4440087e-03
0.0883542      	-1.5228677e-03
0.0883546      	-1.5981419e-03
0.088355       	-1.6700534e-03
0.0883554      	-1.7376716e-03
0.0883558      	-1.8009949e-03
0.0883561      	-1.8601189e-03
0.0883565      	-1.9147887e-03
0.0883569      	-1.9640211e-03
0.0883573      	-2.0073600e-03
0.0883577      	-2.0439831e-03
0.088358       	-2.0727584e-03
0.0883584      	-2.0925335e-03
0.0883588      	-2.1018595e-03
0.0883592      	-2.1006328e-03
0.0883596      	-2.0893729e-03
0.0883599      	-2.0662566e-03
0.0883603      	-2.0308368e-03
0.0883607      	-1.9830438e-03
0.0883611      	-1.9237964e-03
0.0883615      	-1.8549316e-03
0.0883618      	-1.7794250e-03
0.0883622      	-1.7002109e-03
0.0883626      	-1.6198851e-03
0.088363       	-1.5408608e-03
0.0883634      	-1.4646850e-03
0.0883637      	-1.3922550e-03
0.0883641      	-1.3247702e-03
0.0883645      	-1.2636193e-03
0.0883649      	-1.2095050e-03
0.0883653      	-1.1627389e-03
0.0883657      	-1.1227463e-03
0.088366       	-1.0892135e-03
0.0883664      	-1.0599234e-03