# Region type : patch wOutlet
# Faces  :     2574
# Area   :     7.7677716e-05
# Time         	average(U)	average(p)	average(T)
0              	(0.0000000e+00 0.0000000e+00 0.0000000e+00)	1.0000000e+05	2.9300000e+02
4.83925e-07    	(-3.3281188e-10 5.5235845e-04 2.8597565e-08)	1.0000086e+05	2.9400001e+02
8.8826e-07     	(5.6228819e-08 6.2977358e-04 1.2875943e-07)	1.0000093e+05	2.9399995e+02
1.29259e-06    	(7.0173641e-08 5.2977178e-04 3.3618088e-07)	1.0000088e+05	2.9399989e+02
1.69693e-06    	(7.7601811e-08 4.5101253e-04 4.3168164e-07)	1.0000084e+05	2.9399985e+02
2.10126e-06    	(1.2972231e-07 3.9085333e-04 2.6641063e-07)	1.0000081e+05	2.9399982e+02
2.5056e-06     	(2.0802086e-05 3.8488095e-04 -2.0771793e-05)	1.0000011e+05	2.9399427e+02
2.90993e-06    	(6.8245126e-05 2.0026729e-03 -8.4742193e-06)	9.9997698e+04	2.9398833e+02
3.31427e-06    	(3.9674494e-05 3.4891346e-03 -2.2265620e-05)	9.9996770e+04	2.9396475e+02
3.7186e-06     	(-5.4507530e-06 4.8267572e-03 3.5634373e-05)	9.9977098e+04	2.9381310e+02
4.12294e-06    	(1.1893426e-04 1.4522335e-02 -1.5227431e-05)	9.9947608e+04	2.9372309e+02
4.52728e-06    	(1.4959299e-04 4.2450575e-02 3.3725249e-05)	9.9925186e+04	2.9365709e+02
4.9316e-06     	(-5.7058564e-04 8.0100987e-02 5.0213512e-04)	9.9915802e+04	2.9363448e+02
5.33592e-06    	(-1.0746072e-03 1.1291864e-01 7.5900180e-04)	9.9911543e+04	2.9361951e+02
5.74025e-06    	(-1.1534399e-03 1.3085372e-01 6.7380399e-04)	9.9905990e+04	2.9361831e+02
6.1446e-06     	(-5.4399277e-04 1.3005717e-01 2.8044878e-04)	9.9900253e+04	2.9363158e+02
6.54898e-06    	(4.1356778e-04 1.1259305e-01 -9.9700295e-04)	9.9889130e+04	2.9361494e+02
6.95339e-06    	(8.9508966e-04 8.1773125e-02 -2.2736074e-03)	9.9870609e+04	2.9354936e+02
7.35798e-06    	(1.5179975e-03 5.0539455e-02 -4.7459255e-03)	9.9843344e+04	2.9347838e+02
7.76253e-06    	(2.9465776e-03 3.5554475e-02 -7.8902222e-03)	9.9815857e+04	2.9339043e+02
8.16708e-06    	(3.7346906e-03 4.0674061e-02 -9.2461153e-03)	9.9792518e+04	2.9333164e+02
8.57163e-06    	(3.5565901e-03 6.2240411e-02 -9.2599178e-03)	9.9779904e+04	2.9330663e+02
8.97618e-06    	(3.2051985e-03 8.6670916e-02 -9.1196476e-03)	9.9783154e+04	2.9334926e+02
9.38073e-06    	(3.2162587e-03 1.0147277e-01 -9.3334981e-03)	9.9793770e+04	2.9338449e+02
9.78526e-06    	(3.1269263e-03 9.4423467e-02 -1.0025120e-02)	9.9796244e+04	2.9339609e+02
1.01898e-05    	(3.0700559e-03 6.8490197e-02 -1.1261871e-02)	9.9787895e+04	2.9336183e+02
1.05943e-05    	(3.0878419e-03 3.8035142e-02 -1.2251018e-02)	9.9764687e+04	2.9328109e+02
1.09989e-05    	(2.8259751e-03 2.0384652e-02 -1.3006703e-02)	9.9738818e+04	2.9320517e+02
1.14035e-05    	(2.8792871e-03 2.3077571e-02 -1.4094720e-02)	9.9726282e+04	2.9319137e+02
1.1808e-05     	(3.3420521e-03 3.8241019e-02 -1.5938245e-02)	9.9730563e+04	2.9321076e+02
1.22126e-05    	(4.0431227e-03 5.3133886e-02 -1.8103369e-02)	9.9741206e+04	2.9324044e+02
1.26172e-05    	(4.8710339e-03 5.5926603e-02 -2.0418496e-02)	9.9747794e+04	2.9325127e+02
1.30218e-05    	(5.8112154e-03 4.3705655e-02 -2.3246281e-02)	9.9744487e+04	2.9323053e+02
1.34266e-05    	(6.5268757e-03 2.6536783e-02 -2.5328557e-02)	9.9731099e+04	2.9318849e+02
1.38313e-05    	(6.9912631e-03 1.5756723e-02 -2.7078286e-02)	9.9718132e+04	2.9315026e+02
1.42361e-05    	(7.2737149e-03 1.5850899e-02 -2.8565272e-02)	9.9711612e+04	2.9313042e+02
1.4641e-05     	(7.3221276e-03 2.5017357e-02 -2.9601966e-02)	9.9713248e+04	2.9313885e+02
1.50458e-05    	(7.6773062e-03 3.5673144e-02 -3.0411898e-02)	9.9721356e+04	2.9315961e+02
1.54506e-05    	(8.5276126e-03 4.0754581e-02 -3.1183462e-02)	9.9729184e+04	2.9317688e+02
1.58553e-05    	(9.5720714e-03 3.7358010e-02 -3.2130980e-02)	9.9732387e+04	2.9317788e+02
1.62601e-05    	(1.0390200e-02 2.9303155e-02 -3.2845766e-02)	9.9728197e+04	2.9315198e+02
1.66649e-05    	(1.0888972e-02 2.3603573e-02 -3.3562184e-02)	9.9722067e+04	2.9313229e+02
1.70696e-05    	(1.1515416e-02 2.4422109e-02 -3.4601716e-02)	9.9720595e+04	2.9312631e+02
1.74743e-05    	(1.2263540e-02 2.9905812e-02 -3.5644564e-02)	9.9724581e+04	2.9313551e+02
1.78791e-05    	(1.2916335e-02 3.5443786e-02 -3.6429073e-02)	9.9731678e+04	2.9314968e+02
1.82838e-05    	(1.3367812e-02 3.6654450e-02 -3.6917019e-02)	9.9737857e+04	2.9315762e+02
1.86885e-05    	(1.3594954e-02 3.3862479e-02 -3.6866388e-02)	9.9739560e+04	2.9314761e+02
1.90933e-05    	(1.3392739e-02 3.0521818e-02 -3.6145862e-02)	9.9737752e+04	2.9313237e+02
1.9498e-05     	(1.2738769e-02 2.9392700e-02 -3.5134574e-02)	9.9736471e+04	2.9312557e+02
1.99027e-05    	(1.2192402e-02 3.1412510e-02 -3.4164857e-02)	9.9738173e+04	2.9312519e+02
2.03075e-05    	(1.1948706e-02 3.5625149e-02 -3.3619066e-02)	9.9742775e+04	2.9313247e+02
2.07124e-05    	(1.1986320e-02 3.8766379e-02 -3.3035912e-02)	9.9748744e+04	2.9314315e+02
2.11172e-05    	(1.1964772e-02 3.8038915e-02 -3.1973667e-02)	9.9752838e+04	2.9314512e+02
2.1522e-05     	(1.1974839e-02 3.4635321e-02 -3.0856826e-02)	9.9754049e+04	2.9313936e+02
2.19269e-05    	(1.1965662e-02 3.2224980e-02 -3.0296146e-02)	9.9754002e+04	2.9313103e+02
2.23317e-05    	(1.1945387e-02 3.2608521e-02 -2.9828769e-02)	9.9754864e+04	2.9312617e+02
2.27365e-05    	(1.1933642e-02 3.5288510e-02 -2.9143605e-02)	9.9757716e+04	2.9312817e+02
2.31414e-05    	(1.1897158e-02 3.8681652e-02 -2.8303117e-02)	9.9761986e+04	2.9313047e+02
2.35462e-05    	(1.1662227e-02 4.0876731e-02 -2.7347070e-02)	9.9765364e+04	2.9312963e+02
2.3951e-05     	(1.1348932e-02 4.1347389e-02 -2.6477636e-02)	9.9767944e+04	2.9312761e+02
2.43559e-05    	(1.1016089e-02 4.0742527e-02 -2.5579094e-02)	9.9769550e+04	2.9312580e+02
2.47607e-05    	(1.0596182e-02 4.0405207e-02 -2.4147955e-02)	9.9771435e+04	2.9312375e+02
2.51655e-05    	(1.0193078e-02 4.0862448e-02 -2.2287502e-02)	9.9773471e+04	2.9312264e+02
2.55703e-05    	(9.8395394e-03 4.1639875e-02 -2.0233311e-02)	9.9775140e+04	2.9311984e+02
2.59751e-05    	(9.4042724e-03 4.2300245e-02 -1.8341246e-02)	9.9776246e+04	2.9311412e+02
2.63799e-05    	(9.1480582e-03 4.2874120e-02 -1.6966638e-02)	9.9776504e+04	2.9310780e+02
2.67847e-05    	(8.7049780e-03 4.3485356e-02 -1.5881745e-02)	9.9777258e+04	2.9310542e+02
2.71895e-05    	(8.1989087e-03 4.3824807e-02 -1.4839753e-02)	9.9778384e+04	2.9310416e+02
2.75943e-05    	(7.7430153e-03 4.3651883e-02 -1.3657322e-02)	9.9779707e+04	2.9310268e+02
2.79992e-05    	(7.3094418e-03 4.2899568e-02 -1.2592188e-02)	9.9780624e+04	2.9309987e+02
2.84041e-05    	(6.9722996e-03 4.1420656e-02 -1.1637613e-02)	9.9780740e+04	2.9309479e+02
2.8809e-05     	(6.4384619e-03 3.9992049e-02 -1.1010168e-02)	9.9779810e+04	2.9308521e+02
2.92139e-05    	(5.7869981e-03 3.8945383e-02 -1.0417827e-02)	9.9779323e+04	2.9308399e+02
2.96187e-05    	(5.3190629e-03 3.7964523e-02 -9.6070639e-03)	9.9780004e+04	2.9308327e+02
3.00236e-05    	(4.9750418e-03 3.6763008e-02 -8.6382998e-03)	9.9781002e+04	2.9308307e+02
3.04285e-05    	(4.6736249e-03 3.5056267e-02 -7.5884775e-03)	9.9781574e+04	2.9308198e+02
3.08334e-05    	(4.3309639e-03 3.2666658e-02 -6.5973147e-03)	9.9781387e+04	2.9307881e+02
3.12383e-05    	(4.1144701e-03 3.0035968e-02 -5.8049783e-03)	9.9780854e+04	2.9307488e+02
3.16432e-05    	(3.8915129e-03 2.7763527e-02 -5.1175953e-03)	9.9780306e+04	2.9307280e+02
3.20481e-05    	(3.7201563e-03 2.5719076e-02 -4.5320980e-03)	9.9780302e+04	2.9307192e+02
3.2453e-05     	(3.4658165e-03 2.3579947e-02 -3.9126903e-03)	9.9780311e+04	2.9307038e+02
3.2858e-05     	(3.1258095e-03 2.1504023e-02 -3.2066468e-03)	9.9780379e+04	2.9306939e+02
3.32629e-05    	(2.8816377e-03 1.9375430e-02 -2.4759531e-03)	9.9780501e+04	2.9306859e+02
3.36678e-05    	(2.6621102e-03 1.7030009e-02 -1.8137038e-03)	9.9780460e+04	2.9306708e+02
3.40728e-05    	(2.4985766e-03 1.4689918e-02 -1.3245126e-03)	9.9780279e+04	2.9306549e+02
3.44777e-05    	(2.3099320e-03 1.2622462e-02 -9.6103440e-04)	9.9780253e+04	2.9306492e+02
3.48827e-05    	(2.0840715e-03 1.0655208e-02 -6.0108581e-04)	9.9780339e+04	2.9306397e+02
3.52876e-05    	(1.8040182e-03 8.9034848e-03 -7.4512387e-05)	9.9780557e+04	2.9306347e+02
3.56926e-05    	(1.5266173e-03 7.0878907e-03 6.4680462e-04)	9.9780738e+04	2.9306278e+02
3.60976e-05    	(1.2829248e-03 5.3148663e-03 1.3261937e-03)	9.9781053e+04	2.9306236e+02
3.65026e-05    	(1.0378507e-03 3.7810483e-03 1.8809812e-03)	9.9781239e+04	2.9306141e+02
3.69075e-05    	(7.7841948e-04 2.4077341e-03 2.3625542e-03)	9.9781564e+04	2.9306095e+02
3.73125e-05    	(5.0960242e-04 1.1095922e-03 2.8725875e-03)	9.9781967e+04	2.9306060e+02
3.77175e-05    	(2.4425244e-04 -1.1540506e-04 3.5018064e-03)	9.9782432e+04	2.9306017e+02
3.81225e-05    	(-5.0473289e-05 -1.3758539e-03 4.2271489e-03)	9.9782867e+04	2.9305989e+02
3.85274e-05    	(-3.6110419e-04 -2.5299595e-03 4.9342757e-03)	9.9783331e+04	2.9305964e+02
3.89324e-05    	(-6.7452674e-04 -3.6077782e-03 5.5726815e-03)	9.9783868e+04	2.9305971e+02
3.93374e-05    	(-9.6401524e-04 -4.7167209e-03 6.2019736e-03)	9.9784392e+04	2.9305955e+02
3.97423e-05    	(-1.2754005e-03 -5.8394257e-03 6.8719073e-03)	9.9784897e+04	2.9305945e+02
4.01473e-05    	(-1.5954621e-03 -6.9247575e-03 7.5546216e-03)	9.9785388e+04	2.9305904e+02
4.05523e-05    	(-1.9079040e-03 -8.0335935e-03 8.2906809e-03)	9.9785853e+04	2.9305904e+02
4.09572e-05    	(-2.2180915e-03 -9.0834852e-03 9.0465749e-03)	9.9786354e+04	2.9305888e+02
4.13622e-05    	(-2.5273332e-03 -1.0103739e-02 9.7682085e-03)	9.9786923e+04	2.9305898e+02
4.17672e-05    	(-2.8249390e-03 -1.1083467e-02 1.0467879e-02)	9.9787580e+04	2.9305913e+02
4.21722e-05    	(-3.1178876e-03 -1.2111041e-02 1.1169574e-02)	9.9788132e+04	2.9305880e+02
4.25771e-05    	(-3.4267981e-03 -1.3153853e-02 1.1852654e-02)	9.9788638e+04	2.9305876e+02
4.29821e-05    	(-3.7341229e-03 -1.4153602e-02 1.2539688e-02)	9.9789188e+04	2.9305851e+02
4.33871e-05    	(-4.0291196e-03 -1.5010505e-02 1.3258240e-02)	9.9789842e+04	2.9305860e+02
4.37921e-05    	(-4.2952845e-03 -1.5776548e-02 1.3966184e-02)	9.9790562e+04	2.9305876e+02
4.41971e-05    	(-4.5645469e-03 -1.6505915e-02 1.4635567e-02)	9.9791285e+04	2.9305887e+02
4.4602e-05     	(-4.8725775e-03 -1.7200157e-02 1.5299917e-02)	9.9792099e+04	2.9305921e+02
4.5007e-05     	(-5.1881258e-03 -1.7921839e-02 1.5950706e-02)	9.9792855e+04	2.9305901e+02
4.5412e-05     	(-5.5070911e-03 -1.8557266e-02 1.6606384e-02)	9.9793594e+04	2.9305921e+02
4.5817e-05     	(-5.7979589e-03 -1.9038786e-02 1.7279626e-02)	9.9794411e+04	2.9305920e+02
4.6222e-05     	(-6.0570299e-03 -1.9412936e-02 1.8008392e-02)	9.9795356e+04	2.9305974e+02
4.6627e-05     	(-6.3408990e-03 -1.9752063e-02 1.8681573e-02)	9.9796323e+04	2.9305993e+02
4.70319e-05    	(-6.6488065e-03 -2.0110505e-02 1.9287487e-02)	9.9797187e+04	2.9305973e+02
4.74369e-05    	(-6.9520339e-03 -2.0445897e-02 1.9877129e-02)	9.9798044e+04	2.9305926e+02
4.78419e-05    	(-7.2237092e-03 -2.0620866e-02 2.0460418e-02)	9.9798971e+04	2.9305995e+02
4.82469e-05    	(-7.4484172e-03 -2.0684676e-02 2.1061724e-02)	9.9800106e+04	2.9306055e+02
4.86519e-05    	(-7.6608280e-03 -2.0759801e-02 2.1644119e-02)	9.9801217e+04	2.9306078e+02
4.90569e-05    	(-7.9091659e-03 -2.0985401e-02 2.2160299e-02)	9.9802107e+04	2.9306040e+02
4.94618e-05    	(-8.1749535e-03 -2.1136937e-02 2.2633342e-02)	9.9802982e+04	2.9306004e+02
4.98668e-05    	(-8.4119951e-03 -2.1051441e-02 2.3074334e-02)	9.9803976e+04	2.9306062e+02
5.02718e-05    	(-8.6009155e-03 -2.0790416e-02 2.3517072e-02)	9.9805311e+04	2.9306173e+02
5.06768e-05    	(-8.7586804e-03 -2.0564024e-02 2.3935736e-02)	9.9806690e+04	2.9306235e+02
5.10818e-05    	(-8.9257075e-03 -2.0550726e-02 2.4320454e-02)	9.9807712e+04	2.9306180e+02
5.14868e-05    	(-9.0973012e-03 -2.0548047e-02 2.4644829e-02)	9.9808636e+04	2.9306127e+02
5.18918e-05    	(-9.2857203e-03 -2.0249483e-02 2.4941257e-02)	9.9809768e+04	2.9306173e+02
5.22967e-05    	(-9.4540730e-03 -1.9664636e-02 2.5223176e-02)	9.9811176e+04	2.9306289e+02
5.27017e-05    	(-9.5810094e-03 -1.9071846e-02 2.5475671e-02)	9.9812800e+04	2.9306398e+02
5.31067e-05    	(-9.6959306e-03 -1.8690584e-02 2.5696295e-02)	9.9814235e+04	2.9306408e+02
5.35117e-05    	(-9.8029290e-03 -1.8548533e-02 2.5883151e-02)	9.9815369e+04	2.9306359e+02
5.39167e-05    	(-9.9206228e-03 -1.8320070e-02 2.6025284e-02)	9.9816553e+04	2.9306366e+02
5.43217e-05    	(-1.0036132e-02 -1.7740579e-02 2.6153760e-02)	9.9817908e+04	2.9306423e+02
5.47266e-05    	(-1.0111302e-02 -1.6991611e-02 2.6300098e-02)	9.9819510e+04	2.9306515e+02
5.51316e-05    	(-1.0181746e-02 -1.6361994e-02 2.6421455e-02)	9.9821117e+04	2.9306563e+02
5.55366e-05    	(-1.0242569e-02 -1.5930670e-02 2.6480308e-02)	9.9822507e+04	2.9306542e+02
5.59416e-05    	(-1.0311834e-02 -1.5553407e-02 2.6486887e-02)	9.9823745e+04	2.9306452e+02
5.63466e-05    	(-1.0370765e-02 -1.5012175e-02 2.6454365e-02)	9.9824924e+04	2.9306423e+02
5.67516e-05    	(-1.0404877e-02 -1.4232315e-02 2.6423252e-02)	9.9826378e+04	2.9306433e+02
5.71566e-05    	(-1.0438673e-02 -1.3315755e-02 2.6406062e-02)	9.9828003e+04	2.9306480e+02
5.75615e-05    	(-1.0436584e-02 -1.2510346e-02 2.6436933e-02)	9.9829573e+04	2.9306491e+02
5.79665e-05    	(-1.0444584e-02 -1.1917883e-02 2.6392376e-02)	9.9831038e+04	2.9306441e+02
5.83715e-05    	(-1.0447143e-02 -1.1355934e-02 2.6232284e-02)	9.9832317e+04	2.9306342e+02
5.87765e-05    	(-1.0402709e-02 -1.0706779e-02 2.6000738e-02)	9.9833651e+04	2.9306306e+02
5.91815e-05    	(-1.0374771e-02 -9.8834977e-03 2.5843382e-02)	9.9835187e+04	2.9306302e+02
5.95865e-05    	(-1.0372158e-02 -9.0150307e-03 2.5691756e-02)	9.9836731e+04	2.9306274e+02
5.99914e-05    	(-1.0367787e-02 -8.2425356e-03 2.5552684e-02)	9.9838275e+04	2.9306267e+02
6.03964e-05    	(-1.0348831e-02 -7.5516875e-03 2.5336607e-02)	9.9839640e+04	2.9306136e+02
6.08014e-05    	(-1.0257813e-02 -6.8753403e-03 2.5027833e-02)	9.9840885e+04	2.9306075e+02
6.12064e-05    	(-1.0166571e-02 -6.0920164e-03 2.4708756e-02)	9.9842277e+04	2.9306044e+02
6.16114e-05    	(-1.0123304e-02 -5.1848055e-03 2.4453570e-02)	9.9843802e+04	2.9306020e+02
6.20164e-05    	(-1.0090904e-02 -4.3148839e-03 2.4216682e-02)	9.9845204e+04	2.9305928e+02
6.24214e-05    	(-1.0031634e-02 -3.5904528e-03 2.4004293e-02)	9.9846475e+04	2.9305865e+02
6.28263e-05    	(-9.9043639e-03 -2.8554180e-03 2.3726157e-02)	9.9847760e+04	2.9305776e+02
6.32313e-05    	(-9.7231822e-03 -2.0171877e-03 2.3353781e-02)	9.9849023e+04	2.9305698e+02
6.36363e-05    	(-9.6299524e-03 -1.1282904e-03 2.3006493e-02)	9.9850388e+04	2.9305657e+02
6.40413e-05    	(-9.5776162e-03 -3.1854631e-04 2.2733013e-02)	9.9851696e+04	2.9305619e+02
6.44463e-05    	(-9.5254638e-03 3.9093284e-04 2.2473087e-02)	9.9852985e+04	2.9305563e+02
6.48513e-05    	(-9.3920550e-03 1.0534458e-03 2.2184976e-02)	9.9854133e+04	2.9305431e+02
6.52563e-05    	(-9.2594484e-03 1.7226744e-03 2.1868109e-02)	9.9855216e+04	2.9305375e+02
6.56613e-05    	(-9.1623785e-03 2.4967626e-03 2.1530254e-02)	9.9856380e+04	2.9305297e+02
6.60663e-05    	(-9.0969920e-03 3.2432320e-03 2.1223041e-02)	9.9857609e+04	2.9305290e+02
6.64713e-05    	(-8.9912108e-03 3.8700972e-03 2.0913278e-02)	9.9858856e+04	2.9305264e+02
6.68763e-05    	(-8.8485427e-03 4.3314313e-03 2.0524397e-02)	9.9859913e+04	2.9305189e+02
6.72813e-05    	(-8.6882048e-03 4.7043120e-03 2.0127309e-02)	9.9861006e+04	2.9305139e+02
6.76863e-05    	(-8.5454257e-03 5.0309254e-03 1.9731883e-02)	9.9862038e+04	2.9305069e+02
6.80913e-05    	(-8.3852869e-03 5.3473274e-03 1.9299661e-02)	9.9863135e+04	2.9305057e+02
6.84963e-05    	(-8.1992413e-03 5.6151486e-03 1.8820138e-02)	9.9864201e+04	2.9305018e+02
6.89013e-05    	(-7.9856178e-03 5.8208733e-03 1.8299587e-02)	9.9865241e+04	2.9304982e+02
6.93063e-05    	(-7.7661998e-03 5.9585168e-03 1.7746163e-02)	9.9866280e+04	2.9304954e+02
6.97113e-05    	(-7.5517373e-03 6.0879386e-03 1.7196032e-02)	9.9867172e+04	2.9304863e+02
7.01163e-05    	(-7.3344823e-03 6.2214486e-03 1.6663507e-02)	9.9868090e+04	2.9304840e+02
7.05214e-05    	(-7.0940790e-03 6.4144244e-03 1.6114752e-02)	9.9869099e+04	2.9304830e+02
7.09264e-05    	(-6.8295596e-03 6.5838933e-03 1.5498927e-02)	9.9870094e+04	2.9304811e+02
7.13314e-05    	(-6.5710168e-03 6.6700275e-03 1.4862579e-02)	9.9871001e+04	2.9304770e+02
7.17364e-05    	(-6.3094483e-03 6.7149587e-03 1.4258390e-02)	9.9871893e+04	2.9304745e+02
7.21414e-05    	(-6.0341338e-03 6.7310676e-03 1.3647144e-02)	9.9872770e+04	2.9304706e+02
7.25464e-05    	(-5.7860737e-03 6.7462810e-03 1.3057731e-02)	9.9873576e+04	2.9304649e+02
7.29514e-05    	(-5.5402811e-03 6.7660189e-03 1.2466364e-02)	9.9874373e+04	2.9304606e+02
7.33564e-05    	(-5.2961594e-03 6.8253817e-03 1.1875044e-02)	9.9875167e+04	2.9304580e+02
7.37615e-05    	(-5.0964725e-03 6.8618163e-03 1.1304600e-02)	9.9875948e+04	2.9304544e+02
7.41665e-05    	(-4.8990210e-03 6.8398354e-03 1.0767303e-02)	9.9876716e+04	2.9304525e+02
7.45715e-05    	(-4.6866784e-03 6.7504520e-03 1.0269881e-02)	9.9877403e+04	2.9304450e+02
7.49765e-05    	(-4.4943613e-03 6.6413476e-03 9.8127001e-03)	9.9877992e+04	2.9304376e+02
7.53815e-05    	(-4.3198138e-03 6.5538697e-03 9.4033723e-03)	9.9878622e+04	2.9304356e+02
7.57865e-05    	(-4.1466533e-03 6.4922595e-03 8.9980747e-03)	9.9879322e+04	2.9304335e+02
7.61916e-05    	(-3.9678049e-03 6.3335103e-03 8.6029881e-03)	9.9879898e+04	2.9304283e+02
7.65966e-05    	(-3.8131283e-03 6.1217958e-03 8.2260785e-03)	9.9880418e+04	2.9304254e+02
7.70016e-05    	(-3.6898159e-03 5.8916523e-03 7.8819125e-03)	9.9880929e+04	2.9304218e+02
7.74066e-05    	(-3.5551131e-03 5.6531854e-03 7.6120939e-03)	9.9881412e+04	2.9304184e+02
7.78116e-05    	(-3.4136457e-03 5.3793434e-03 7.3794131e-03)	9.9881881e+04	2.9304170e+02
7.82167e-05    	(-3.2858270e-03 5.0905333e-03 7.1182236e-03)	9.9882378e+04	2.9304162e+02
7.86217e-05    	(-3.1708641e-03 4.7804393e-03 6.8509495e-03)	9.9882836e+04	2.9304166e+02
7.90267e-05    	(-3.0581609e-03 4.3914089e-03 6.6071884e-03)	9.9883266e+04	2.9304174e+02
7.94317e-05    	(-2.9583240e-03 3.9195520e-03 6.3908437e-03)	9.9883636e+04	2.9304159e+02
7.98367e-05    	(-2.8902643e-03 3.4212624e-03 6.2113687e-03)	9.9883908e+04	2.9304120e+02
8.02418e-05    	(-2.8128545e-03 2.9703590e-03 6.0342399e-03)	9.9884231e+04	2.9304139e+02
8.06468e-05    	(-2.7367519e-03 2.5446266e-03 5.8517913e-03)	9.9884632e+04	2.9304177e+02
8.10518e-05    	(-2.6596725e-03 2.0277157e-03 5.6768093e-03)	9.9884976e+04	2.9304196e+02
8.14568e-05    	(-2.5872505e-03 1.4318362e-03 5.5061407e-03)	9.9885241e+04	2.9304190e+02
8.18618e-05    	(-2.5403553e-03 8.3543158e-04 5.3590754e-03)	9.9885436e+04	2.9304173e+02
8.22669e-05    	(-2.4989226e-03 3.0010246e-04 5.2322425e-03)	9.9885644e+04	2.9304176e+02
8.26719e-05    	(-2.4463959e-03 -1.8090826e-04 5.1090944e-03)	9.9885926e+04	2.9304210e+02
8.30769e-05    	(-2.3938751e-03 -6.6713196e-04 4.9734081e-03)	9.9886252e+04	2.9304251e+02
8.34819e-05    	(-2.3421643e-03 -1.1962788e-03 4.8475235e-03)	9.9886484e+04	2.9304244e+02
8.38869e-05    	(-2.2914401e-03 -1.7576134e-03 4.7385260e-03)	9.9886633e+04	2.9304229e+02
8.42919e-05    	(-2.2379560e-03 -2.2789803e-03 4.6273421e-03)	9.9886820e+04	2.9304237e+02
8.46969e-05    	(-2.1992712e-03 -2.7316339e-03 4.5299502e-03)	9.9887044e+04	2.9304252e+02
8.51019e-05    	(-2.1645594e-03 -3.1820981e-03 4.4266812e-03)	9.9887316e+04	2.9304290e+02
8.55069e-05    	(-2.1196310e-03 -3.6781959e-03 4.3044696e-03)	9.9887594e+04	2.9304327e+02
8.59119e-05    	(-2.0822941e-03 -4.2230098e-03 4.1820978e-03)	9.9887842e+04	2.9304350e+02
8.63169e-05    	(-2.0430341e-03 -4.7995582e-03 4.0648809e-03)	9.9888030e+04	2.9304331e+02
8.67219e-05    	(-1.9860887e-03 -5.3546011e-03 3.9659422e-03)	9.9888172e+04	2.9304330e+02
8.71269e-05    	(-1.9205740e-03 -5.8505501e-03 3.8749394e-03)	9.9888370e+04	2.9304360e+02
8.75319e-05    	(-1.8738618e-03 -6.3249729e-03 3.7498818e-03)	9.9888665e+04	2.9304398e+02
8.79369e-05    	(-1.8290723e-03 -6.8278618e-03 3.6239615e-03)	9.9888963e+04	2.9304439e+02
8.83419e-05    	(-1.7933377e-03 -7.4029824e-03 3.5120055e-03)	9.9889251e+04	2.9304468e+02
8.87469e-05    	(-1.7716496e-03 -8.0151937e-03 3.3907413e-03)	9.9889391e+04	2.9304395e+02
8.91519e-05    	(-1.7262932e-03 -8.5786968e-03 3.2866167e-03)	9.9889464e+04	2.9304370e+02
8.95569e-05    	(-1.6732914e-03 -9.0079713e-03 3.2199258e-03)	9.9889692e+04	2.9304403e+02
8.99619e-05    	(-1.6178849e-03 -9.3662771e-03 3.0926813e-03)	9.9890116e+04	2.9304489e+02
9.03669e-05    	(-1.5600343e-03 -9.7896128e-03 2.9423910e-03)	9.9890567e+04	2.9304547e+02
9.07719e-05    	(-1.5225828e-03 -1.0360029e-02 2.8064296e-03)	9.9890958e+04	2.9304593e+02
9.11769e-05    	(-1.5182222e-03 -1.1001081e-02 2.6611923e-03)	9.9891223e+04	2.9304560e+02
9.15819e-05    	(-1.5009865e-03 -1.1591712e-02 2.5305585e-03)	9.9891411e+04	2.9304540e+02
9.19869e-05    	(-1.4484438e-03 -1.2020683e-02 2.4552517e-03)	9.9891742e+04	2.9304573e+02
9.23919e-05    	(-1.3840891e-03 -1.2300537e-02 2.3235340e-03)	9.9892267e+04	2.9304639e+02
9.27969e-05    	(-1.3079416e-03 -1.2582417e-02 2.1444169e-03)	9.9892797e+04	2.9304693e+02
9.32019e-05    	(-1.2677077e-03 -1.2955312e-02 1.9901073e-03)	9.9893396e+04	2.9304767e+02
9.36069e-05    	(-1.2358503e-03 -1.3409844e-02 1.8215235e-03)	9.9893907e+04	2.9304771e+02
9.40119e-05    	(-1.2073564e-03 -1.3832455e-02 1.6136949e-03)	9.9894165e+04	2.9304695e+02
9.44169e-05    	(-1.1484540e-03 -1.4074197e-02 1.4642390e-03)	9.9894428e+04	2.9304635e+02
9.4822e-05     	(-1.0709375e-03 -1.4065225e-02 1.2810201e-03)	9.9895031e+04	2.9304739e+02
9.5227e-05     	(-9.5129865e-04 -1.3941060e-02 1.0288257e-03)	9.9895845e+04	2.9304834e+02
9.5632e-05     	(-8.4333636e-04 -1.3992471e-02 7.6906952e-04)	9.9896602e+04	2.9304902e+02
9.6037e-05     	(-7.4494782e-04 -1.4237503e-02 5.1085873e-04)	9.9897293e+04	2.9304965e+02
9.6442e-05     	(-6.6306380e-04 -1.4525122e-02 2.2188807e-04)	9.9897853e+04	2.9304951e+02
9.68471e-05    	(-6.0208884e-04 -1.4726074e-02 -4.6820697e-05)	9.9898315e+04	2.9304936e+02
9.72521e-05    	(-4.9244762e-04 -1.4705018e-02 -2.6078739e-04)	9.9899008e+04	2.9305025e+02
9.76571e-05    	(-3.6310693e-04 -1.4523552e-02 -5.1998271e-04)	9.9899848e+04	2.9305090e+02
9.80621e-05    	(-2.4125127e-04 -1.4358540e-02 -7.9407927e-04)	9.9900719e+04	2.9305188e+02
9.84671e-05    	(-1.3519851e-04 -1.4316297e-02 -1.0522093e-03)	9.9901609e+04	2.9305266e+02
9.88722e-05    	(-4.6827716e-05 -1.4348861e-02 -1.3180931e-03)	9.9902365e+04	2.9305243e+02
9.92772e-05    	(2.0199315e-05 -1.4336208e-02 -1.6106767e-03)	9.9902791e+04	2.9305146e+02
9.96822e-05    	(1.4513096e-04 -1.4101374e-02 -1.8885140e-03)	9.9903309e+04	2.9305138e+02
0.000100087    	(2.8980750e-04 -1.3530294e-02 -2.2244588e-03)	9.9904219e+04	2.9305237e+02
0.000100492    	(4.2956472e-04 -1.2894232e-02 -2.5859861e-03)	9.9905344e+04	2.9305373e+02
0.000100897    	(5.5990109e-04 -1.2513045e-02 -2.9339915e-03)	9.9906454e+04	2.9305474e+02
0.000101302    	(6.6691170e-04 -1.2445866e-02 -3.2656110e-03)	9.9907333e+04	2.9305490e+02
0.000101707    	(7.6200798e-04 -1.2473577e-02 -3.5683290e-03)	9.9908018e+04	2.9305461e+02
0.000102112    	(8.5791386e-04 -1.2314991e-02 -3.8535653e-03)	9.9908711e+04	2.9305461e+02
0.000102517    	(9.7579278e-04 -1.1885934e-02 -4.0978062e-03)	9.9909581e+04	2.9305515e+02
0.000102922    	(1.1126154e-03 -1.1311953e-02 -4.3502614e-03)	9.9910669e+04	2.9305632e+02
0.000103327    	(1.2387783e-03 -1.0779457e-02 -4.6209408e-03)	9.9911862e+04	2.9305736e+02
0.000103732    	(1.3444020e-03 -1.0423468e-02 -4.9306957e-03)	9.9912911e+04	2.9305761e+02
0.000104137    	(1.4486850e-03 -1.0230348e-02 -5.2317768e-03)	9.9913737e+04	2.9305746e+02
0.000104542    	(1.5563147e-03 -9.9977489e-03 -5.5293754e-03)	9.9914536e+04	2.9305741e+02
0.000104947    	(1.6827647e-03 -9.5418628e-03 -5.8227623e-03)	9.9915455e+04	2.9305776e+02
0.000105352    	(1.8098324e-03 -8.8953889e-03 -6.1199942e-03)	9.9916567e+04	2.9305864e+02
0.000105757    	(1.9110949e-03 -8.2277967e-03 -6.3890478e-03)	9.9917780e+04	2.9305926e+02
0.000106163    	(1.9990043e-03 -7.6754651e-03 -6.6326518e-03)	9.9918815e+04	2.9305902e+02
0.000106568    	(2.0679813e-03 -7.2435196e-03 -6.8781712e-03)	9.9919632e+04	2.9305859e+02
0.000106973    	(2.1382221e-03 -6.7436761e-03 -7.1173915e-03)	9.9920489e+04	2.9305828e+02
0.000107378    	(2.2387121e-03 -6.0535143e-03 -7.3460790e-03)	9.9921507e+04	2.9305889e+02
0.000107783    	(2.3518046e-03 -5.2668370e-03 -7.5491580e-03)	9.9922734e+04	2.9305965e+02
0.000108188    	(2.4435058e-03 -4.5261814e-03 -7.7537402e-03)	9.9923923e+04	2.9305986e+02
0.000108593    	(2.5068660e-03 -3.9361677e-03 -7.9212167e-03)	9.9924817e+04	2.9305888e+02
0.000108998    	(2.5329402e-03 -3.4089387e-03 -8.0986014e-03)	9.9925527e+04	2.9305802e+02
0.000109403    	(2.5675026e-03 -2.7331515e-03 -8.2958589e-03)	9.9926389e+04	2.9305808e+02
0.000109808    	(2.6667742e-03 -1.8276190e-03 -8.4805950e-03)	9.9927497e+04	2.9305864e+02
0.000110213    	(2.7562937e-03 -9.0270259e-04 -8.6869427e-03)	9.9928743e+04	2.9305938e+02
0.000110618    	(2.8227097e-03 -1.7830692e-04 -8.8889137e-03)	9.9929846e+04	2.9305923e+02
0.000111023    	(2.9005691e-03 3.1605147e-04 -9.1096566e-03)	9.9930648e+04	2.9305830e+02
0.000111428    	(2.9758799e-03 7.4469978e-04 -9.3546789e-03)	9.9931367e+04	2.9305784e+02
0.000111833    	(3.0587867e-03 1.3874751e-03 -9.6052754e-03)	9.9932254e+04	2.9305779e+02
0.000112238    	(3.1703087e-03 2.2233779e-03 -9.8495227e-03)	9.9933344e+04	2.9305832e+02
0.000112643    	(3.2936662e-03 3.0173946e-03 -1.0119012e-02)	9.9934488e+04	2.9305866e+02
0.000113048    	(3.4175430e-03 3.5991408e-03 -1.0371575e-02)	9.9935426e+04	2.9305808e+02
0.000113453    	(3.5294047e-03 4.0286164e-03 -1.0613228e-02)	9.9936189e+04	2.9305762e+02
0.000113858    	(3.6089731e-03 4.5110906e-03 -1.0833695e-02)	9.9937026e+04	2.9305735e+02
0.000114263    	(3.6908628e-03 5.1513741e-03 -1.1031777e-02)	9.9937977e+04	2.9305746e+02
0.000114668    	(3.7678738e-03 5.8306373e-03 -1.1203016e-02)	9.9939037e+04	2.9305783e+02
0.000115073    	(3.8540810e-03 6.4027389e-03 -1.1349509e-02)	9.9940029e+04	2.9305767e+02
0.000115478    	(3.9152692e-03 6.8493931e-03 -1.1488721e-02)	9.9940850e+04	2.9305729e+02
0.000115883    	(3.9464687e-03 7.2878423e-03 -1.1628470e-02)	9.9941749e+04	2.9305741e+02
0.000116288    	(3.9748661e-03 7.8190994e-03 -1.1772434e-02)	9.9942699e+04	2.9305746e+02
0.000116693    	(4.0282122e-03 8.3694152e-03 -1.1905590e-02)	9.9943673e+04	2.9305771e+02
0.000117098    	(4.0957623e-03 8.8657254e-03 -1.2043214e-02)	9.9944664e+04	2.9305803e+02
0.000117503    	(4.1499498e-03 9.3224681e-03 -1.2150202e-02)	9.9945568e+04	2.9305797e+02
0.000117908    	(4.1865416e-03 9.7637236e-03 -1.2203108e-02)	9.9946458e+04	2.9305813e+02
0.000118313    	(4.2152597e-03 1.0236305e-02 -1.2239620e-02)	9.9947394e+04	2.9305842e+02
0.000118718    	(4.2361441e-03 1.0740078e-02 -1.2264716e-02)	9.9948374e+04	2.9305897e+02
0.000119123    	(4.2486097e-03 1.1237006e-02 -1.2262348e-02)	9.9949384e+04	2.9305966e+02
0.000119528    	(4.2351597e-03 1.1674956e-02 -1.2200986e-02)	9.9950360e+04	2.9306008e+02
0.000119933    	(4.2045994e-03 1.2046663e-02 -1.2105127e-02)	9.9951285e+04	2.9306051e+02
0.000120338    	(4.1429801e-03 1.2409173e-02 -1.1989195e-02)	9.9952165e+04	2.9306082e+02
0.000120743    	(4.0877256e-03 1.2798523e-02 -1.1841181e-02)	9.9953077e+04	2.9306143e+02
0.000121148    	(4.0268215e-03 1.3206032e-02 -1.1634829e-02)	9.9953986e+04	2.9306201e+02
0.000121553    	(3.9446058e-03 1.3589143e-02 -1.1363123e-02)	9.9954958e+04	2.9306295e+02
0.000121958    	(3.8530060e-03 1.3922724e-02 -1.1017674e-02)	9.9955928e+04	2.9306374e+02
0.000122363    	(3.7441120e-03 1.4199866e-02 -1.0659723e-02)	9.9956863e+04	2.9306441e+02
0.000122768    	(3.6141192e-03 1.4440308e-02 -1.0322328e-02)	9.9957689e+04	2.9306494e+02
0.000123173    	(3.4812542e-03 1.4692205e-02 -9.9876105e-03)	9.9958462e+04	2.9306532e+02
0.000123578    	(3.3321374e-03 1.4969840e-02 -9.5934247e-03)	9.9959276e+04	2.9306606e+02
0.000123983    	(3.1590069e-03 1.5294886e-02 -9.1109618e-03)	9.9960090e+04	2.9306669e+02
0.000124388    	(2.9725366e-03 1.5619223e-02 -8.6067798e-03)	9.9960939e+04	2.9306752e+02
0.000124793    	(2.7789391e-03 1.5864212e-02 -8.1333459e-03)	9.9961760e+04	2.9306824e+02
0.000125198    	(2.5845402e-03 1.6006552e-02 -7.6841548e-03)	9.9962448e+04	2.9306860e+02
0.000125603    	(2.4093223e-03 1.6110035e-02 -7.2256384e-03)	9.9963052e+04	2.9306889e+02
0.000126008    	(2.2144499e-03 1.6241958e-02 -6.7087479e-03)	9.9963613e+04	2.9306903e+02
0.000126413    	(2.0004724e-03 1.6448127e-02 -6.1621142e-03)	9.9964129e+04	2.9306886e+02
0.000126818    	(1.7871586e-03 1.6745063e-02 -5.6585367e-03)	9.9964556e+04	2.9306857e+02
0.000127224    	(1.5760862e-03 1.7032218e-02 -5.1566771e-03)	9.9964954e+04	2.9306848e+02
0.000127629    	(1.3562719e-03 1.7279880e-02 -4.6702822e-03)	9.9965334e+04	2.9306825e+02
0.000128034    	(1.1271054e-03 1.7479681e-02 -4.2004844e-03)	9.9965600e+04	2.9306753e+02
0.000128439    	(9.2026864e-04 1.7643176e-02 -3.7163695e-03)	9.9965760e+04	2.9306718e+02
0.000128844    	(7.8513045e-04 1.7749273e-02 -3.2350846e-03)	9.9966054e+04	2.9306730e+02
0.000129249    	(6.5864358e-04 1.7767743e-02 -2.7791412e-03)	9.9966323e+04	2.9306701e+02
0.000129654    	(4.9734484e-04 1.7709938e-02 -2.3905336e-03)	9.9966381e+04	2.9306602e+02
0.000130059    	(3.3512311e-04 1.7522285e-02 -2.0417401e-03)	9.9966300e+04	2.9306514e+02
0.000130464    	(1.9661908e-04 1.7323216e-02 -1.7422600e-03)	9.9966157e+04	2.9306371e+02
0.000130869    	(7.7854967e-05 1.7212538e-02 -1.4951727e-03)	9.9966038e+04	2.9306297e+02
0.000131274    	(-1.4968526e-05 1.7234589e-02 -1.2939045e-03)	9.9965972e+04	2.9306224e+02
0.000131679    	(-8.2876622e-05 1.7218649e-02 -1.0810659e-03)	9.9966130e+04	2.9306253e+02
0.000132084    	(-1.6102511e-04 1.7068560e-02 -8.6628735e-04)	9.9966293e+04	2.9306217e+02
0.000132489    	(-2.2931749e-04 1.6791200e-02 -6.6914154e-04)	9.9966183e+04	2.9306132e+02
0.000132894    	(-2.8740409e-04 1.6392911e-02 -5.3652203e-04)	9.9966037e+04	2.9306085e+02
0.000133299    	(-3.2592443e-04 1.5977490e-02 -4.7411234e-04)	9.9965900e+04	2.9306023e+02
0.000133704    	(-3.4533851e-04 1.5680624e-02 -4.6485324e-04)	9.9965751e+04	2.9305947e+02
0.000134109    	(-3.5265623e-04 1.5486960e-02 -4.3927358e-04)	9.9965743e+04	2.9305964e+02
0.000134514    	(-3.7899307e-04 1.5312118e-02 -3.7526640e-04)	9.9965912e+04	2.9306002e+02
0.000134919    	(-4.2124502e-04 1.5115119e-02 -3.0502550e-04)	9.9966053e+04	2.9306004e+02