# Region type : patch wOutlet
# Faces  :     2574
# Area   :     7.7677716e-05
# Time         	sum(phi)
0              	0.0000000e+00
4.84042e-07    	4.3875904e-08
8.88508e-07    	5.2984799e-08
1.29297e-06    	4.5785660e-08
1.69744e-06    	3.9324933e-08
2.10191e-06    	3.4421587e-08
2.50637e-06    	3.1645285e-08
2.91084e-06    	1.6123656e-07
3.3153e-06     	3.0153928e-07
3.71977e-06    	3.7758453e-07
4.12423e-06    	9.3976798e-07
4.5287e-06     	2.9289150e-06
4.93315e-06    	5.8290682e-06
5.33759e-06    	8.3634688e-06
5.74206e-06    	9.8013761e-06
6.14653e-06    	9.9098155e-06
6.55104e-06    	8.8614338e-06
6.95558e-06    	6.9577080e-06
7.36028e-06    	4.9577831e-06
7.76497e-06    	3.9354016e-06
8.16964e-06    	4.1972296e-06
8.57432e-06    	5.7439011e-06
8.979e-06      	7.6666263e-06
9.38367e-06    	8.9769227e-06
9.78834e-06    	8.6734490e-06
1.0193e-05     	6.8636629e-06
1.05977e-05    	4.5935811e-06
1.10023e-05    	3.0849362e-06
1.1407e-05     	3.1519832e-06
1.18117e-05    	4.2567935e-06
1.22164e-05    	5.4863032e-06
1.26212e-05    	5.9130076e-06
1.30259e-05    	5.2582576e-06
1.34308e-05    	4.1160093e-06
1.38357e-05    	3.3496371e-06
1.42406e-05    	3.3631229e-06
1.46455e-05    	4.1043457e-06
1.50504e-05    	5.0396579e-06
1.54554e-05    	5.6312592e-06
1.58603e-05    	5.5787051e-06
1.62652e-05    	5.1242402e-06
1.667e-05      	4.8336656e-06
1.70749e-05    	5.0064614e-06
1.74798e-05    	5.5594516e-06
1.78846e-05    	6.1817028e-06
1.82895e-05    	6.4985941e-06
1.86944e-05    	6.5157673e-06
1.90992e-05    	6.4519316e-06
1.9504e-05     	6.5480109e-06
1.99089e-05    	6.8727644e-06
2.03138e-05    	7.3815006e-06
2.07188e-05    	7.8395286e-06
2.11238e-05    	8.0024088e-06
2.15287e-05    	7.9476303e-06
2.19337e-05    	7.9628109e-06
2.23387e-05    	8.1737175e-06
2.27436e-05    	8.5377267e-06
2.31486e-05    	9.0118352e-06
2.35535e-05    	9.3706179e-06
2.39585e-05    	9.5905327e-06
2.43634e-05    	9.7345229e-06
2.47684e-05    	9.8945628e-06
2.51733e-05    	1.0129302e-05
2.55783e-05    	1.0384552e-05
2.59832e-05    	1.0601077e-05
2.63881e-05    	1.0799758e-05
2.6793e-05     	1.1024040e-05
2.71979e-05    	1.1224085e-05
2.76029e-05    	1.1380033e-05
2.80079e-05    	1.1497101e-05
2.84129e-05    	1.1523202e-05
2.88179e-05    	1.1517692e-05
2.92229e-05    	1.1489866e-05
2.96279e-05    	1.1481869e-05
3.0033e-05     	1.1437030e-05
3.0438e-05     	1.1361124e-05
3.0843e-05     	1.1223202e-05
3.1248e-05     	1.1020605e-05
3.1653e-05     	1.0787748e-05
3.20581e-05    	1.0563834e-05
3.24631e-05    	1.0321810e-05
3.28682e-05    	1.0092337e-05
3.32733e-05    	9.8560349e-06
3.36783e-05    	9.6065193e-06
3.40834e-05    	9.3374435e-06
3.44885e-05    	9.0714286e-06
3.48935e-05    	8.8598297e-06
3.52986e-05    	8.6393564e-06
3.57037e-05    	8.4193334e-06
3.61088e-05    	8.2072615e-06
3.65139e-05    	7.9993297e-06
3.6919e-05     	7.7957570e-06
3.73241e-05    	7.6114718e-06
3.77292e-05    	7.4535111e-06
3.81343e-05    	7.2751312e-06
3.85394e-05    	7.1162004e-06
3.89445e-05    	6.9465970e-06
3.93496e-05    	6.7564606e-06
3.97547e-05    	6.5582123e-06
4.01598e-05    	6.3861084e-06
4.05649e-05    	6.2248940e-06
4.097e-05      	6.0431161e-06
4.13751e-05    	5.8567743e-06
4.17802e-05    	5.6632079e-06
4.21853e-05    	5.4617734e-06
4.25904e-05    	5.2680800e-06
4.29955e-05    	5.0887707e-06
4.34006e-05    	4.9064386e-06
4.38057e-05    	4.7287918e-06
4.42108e-05    	4.5540779e-06
4.46159e-05    	4.3807850e-06
4.5021e-05     	4.2136919e-06
4.54261e-05    	4.0534015e-06
4.58312e-05    	3.9083881e-06
4.62363e-05    	3.7653008e-06
4.66415e-05    	3.6368039e-06
4.70466e-05    	3.5128920e-06
4.74517e-05    	3.3924613e-06
4.78568e-05    	3.2792966e-06
4.82619e-05    	3.1923274e-06
4.8667e-05     	3.1077202e-06
4.90721e-05    	3.0264896e-06
4.94772e-05    	2.9467422e-06
4.98823e-05    	2.8743218e-06
5.02874e-05    	2.8205453e-06
5.06925e-05    	2.7702562e-06
5.10977e-05    	2.7159589e-06
5.15028e-05    	2.6727096e-06
5.19079e-05    	2.6480758e-06
5.2313e-05     	2.6418984e-06
5.27181e-05    	2.6331469e-06
5.31232e-05    	2.6082637e-06
5.35284e-05    	2.5895901e-06
5.39335e-05    	2.5960549e-06
5.43386e-05    	2.6178341e-06
5.47437e-05    	2.6384827e-06
5.51488e-05    	2.6454351e-06
5.55539e-05    	2.6537414e-06
5.59591e-05    	2.6718246e-06
5.63642e-05    	2.7090484e-06
5.67693e-05    	2.7608857e-06
5.71744e-05    	2.8017549e-06
5.75795e-05    	2.8365362e-06
5.79846e-05    	2.8744362e-06
5.83898e-05    	2.9165189e-06
5.87949e-05    	2.9620233e-06
5.92e-05       	3.0149265e-06
5.96051e-05    	3.0549051e-06
6.00102e-05    	3.0995156e-06
6.04153e-05    	3.1452998e-06
6.08204e-05    	3.1959942e-06
6.12256e-05    	3.2491207e-06
6.16307e-05    	3.2966084e-06
6.20358e-05    	3.3430953e-06
6.24409e-05    	3.3899537e-06
6.2846e-05     	3.4397080e-06
6.32511e-05    	3.4944325e-06
6.36563e-05    	3.5492554e-06
6.40614e-05    	3.5958810e-06
6.44665e-05    	3.6470746e-06
6.48716e-05    	3.6920401e-06
6.52767e-05    	3.7366335e-06
6.56819e-05    	3.7861430e-06
6.6087e-05     	3.8350894e-06
6.64921e-05    	3.8702788e-06
6.68972e-05    	3.8914417e-06
6.73024e-05    	3.9106028e-06
6.77075e-05    	3.9213573e-06
6.81126e-05    	3.9310115e-06
6.85178e-05    	3.9394903e-06
6.89229e-05    	3.9429107e-06
6.9328e-05     	3.9341838e-06
6.97332e-05    	3.9212235e-06
7.01383e-05    	3.9089835e-06
7.05434e-05    	3.9020432e-06
7.09486e-05    	3.8967994e-06
7.13537e-05    	3.8866594e-06
7.17588e-05    	3.8703629e-06
7.2164e-05     	3.8479053e-06
7.25691e-05    	3.8261702e-06
7.29742e-05    	3.8023322e-06
7.33794e-05    	3.7824371e-06
7.37845e-05    	3.7594218e-06
7.41897e-05    	3.7338415e-06
7.45948e-05    	3.7020361e-06
7.5e-05        	3.6646029e-06
7.54051e-05    	3.6269272e-06
7.58103e-05    	3.5895143e-06
7.62154e-05    	3.5506577e-06
7.66206e-05    	3.5080654e-06
7.70257e-05    	3.4604126e-06
7.74309e-05    	3.4088875e-06
7.7836e-05     	3.3543767e-06
7.82412e-05    	3.2996918e-06
7.86463e-05    	3.2437723e-06
7.90515e-05    	3.1827044e-06
7.94566e-05    	3.1143850e-06
7.98618e-05    	3.0442415e-06
8.02669e-05    	2.9775588e-06
8.0672e-05     	2.9106318e-06
8.10772e-05    	2.8356611e-06
8.14823e-05    	2.7553053e-06
8.18874e-05    	2.6761656e-06
8.22926e-05    	2.6019649e-06
8.26977e-05    	2.5311982e-06
8.31028e-05    	2.4576071e-06
8.3508e-05     	2.3793638e-06
8.39131e-05    	2.2994010e-06
8.43182e-05    	2.2222876e-06
8.47234e-05    	2.1481361e-06
8.51285e-05    	2.0745761e-06
8.55336e-05    	1.9997762e-06
8.59388e-05    	1.9213782e-06
8.63439e-05    	1.8405257e-06
8.6749e-05     	1.7602364e-06
8.71542e-05    	1.6819477e-06
8.75593e-05    	1.6010435e-06
8.79644e-05    	1.5170378e-06
8.83696e-05    	1.4350452e-06
8.87747e-05    	1.3565791e-06
8.91798e-05    	1.2802903e-06
8.9585e-05     	1.2074887e-06
8.99901e-05    	1.1304992e-06
9.03952e-05    	1.0492314e-06
9.08004e-05    	9.7184167e-07
9.12055e-05    	9.0129488e-07
9.16106e-05    	8.3553160e-07
9.20158e-05    	7.7546230e-07
9.24209e-05    	7.1355442e-07
9.2826e-05     	6.4729819e-07
9.32312e-05    	5.8431324e-07
9.36363e-05    	5.3286089e-07
9.40414e-05    	4.9216485e-07
9.44466e-05    	4.6373809e-07
9.48517e-05    	4.3716411e-07
9.52568e-05    	4.0169751e-07
9.5662e-05     	3.5849961e-07
9.60671e-05    	3.2367457e-07
9.64722e-05    	3.0237833e-07
9.68774e-05    	2.9133118e-07
9.72825e-05    	2.8460541e-07
9.76877e-05    	2.7848920e-07
9.80928e-05    	2.7047610e-07
9.8498e-05     	2.6914819e-07
9.89031e-05    	2.7924246e-07
9.93083e-05    	2.9725365e-07
9.97134e-05    	3.2714629e-07
0.000100119    	3.5824370e-07
0.000100524    	3.7938397e-07
0.000100929    	3.9028077e-07
0.000101334    	4.1037222e-07
0.000101739    	4.4308101e-07
0.000102144    	4.8057714e-07
0.000102549    	5.1472401e-07
0.000102955    	5.5110311e-07
0.00010336     	5.9057393e-07
0.000103765    	6.3566489e-07
0.00010417     	6.8571993e-07
0.000104575    	7.3937443e-07
0.00010498     	7.9765306e-07
0.000105385    	8.5623798e-07
0.000105791    	9.1920577e-07
0.000106196    	9.8896756e-07
0.000106601    	1.0601621e-06
0.000107006    	1.1331990e-06
0.000107411    	1.2042009e-06
0.000107816    	1.2773021e-06
0.000108222    	1.3533193e-06
0.000108627    	1.4360074e-06
0.000109032    	1.5192749e-06
0.000109437    	1.6039104e-06
0.000109842    	1.6883199e-06
0.000110247    	1.7709357e-06
0.000110652    	1.8540411e-06
0.000111058    	1.9442689e-06
0.000111463    	2.0349954e-06
0.000111868    	2.1240533e-06
0.000112273    	2.2079295e-06
0.000112678    	2.2903038e-06
0.000113083    	2.3744034e-06
0.000113488    	2.4632246e-06
0.000113894    	2.5498720e-06
0.000114299    	2.6333704e-06
0.000114704    	2.7117749e-06
0.000115109    	2.7869536e-06
0.000115514    	2.8638336e-06
0.000115919    	2.9451565e-06
0.000116325    	3.0300729e-06
0.00011673     	3.1124107e-06
0.000117135    	3.1890595e-06
0.00011754     	3.2619263e-06
0.000117945    	3.3378855e-06
0.00011835     	3.4224052e-06
0.000118755    	3.5067229e-06
0.000119161    	3.5835536e-06
0.000119566    	3.6560092e-06
0.000119971    	3.7314020e-06
0.000120376    	3.8118561e-06
0.000120781    	3.8893012e-06
0.000121186    	3.9592568e-06
0.000121591    	4.0239603e-06
0.000121997    	4.0904051e-06
0.000122402    	4.1586882e-06
0.000122807    	4.2255801e-06
0.000123212    	4.2869689e-06
0.000123617    	4.3479750e-06
0.000124022    	4.4117358e-06
0.000124428    	4.4764293e-06
0.000124833    	4.5363284e-06
0.000125238    	4.5875770e-06
0.000125643    	4.6296432e-06
0.000126048    	4.6728376e-06
0.000126453    	4.7269476e-06
0.000126858    	4.7902896e-06
0.000127264    	4.8556830e-06
0.000127669    	4.9111712e-06
0.000128074    	4.9490968e-06
0.000128479    	4.9731842e-06
0.000128884    	4.9981929e-06
0.000129289    	5.0328912e-06
0.000129695    	5.0763539e-06
0.0001301      	5.1164648e-06
0.000130505    	5.1366296e-06
0.00013091     	5.1347584e-06
0.000131315    	5.1217638e-06
0.00013172     	5.1155098e-06
0.000132125    	5.1241096e-06
0.000132531    	5.1425067e-06
0.000132936    	5.1584729e-06
0.000133341    	5.1581663e-06
0.000133746    	5.1404183e-06
0.000134151    	5.1135283e-06
0.000134556    	5.0961017e-06
0.000134961    	5.0892622e-06
0.000135367    	5.0889284e-06
0.000135772    	5.0879954e-06
0.000136177    	5.0795527e-06
0.000136582    	5.0655194e-06
0.000136987    	5.0512084e-06
0.000137392    	5.0430458e-06
0.000137798    	5.0441963e-06
0.000138203    	5.0528195e-06
0.000138608    	5.0637553e-06
0.000139013    	5.0712681e-06
0.000139418    	5.0738823e-06
0.000139823    	5.0766712e-06
0.000140228    	5.0848072e-06
0.000140634    	5.1001473e-06
0.000141039    	5.1207527e-06
0.000141444    	5.1420003e-06
0.000141849    	5.1599512e-06
0.000142254    	5.1756046e-06
0.000142659    	5.1922505e-06
0.000143065    	5.2144317e-06
0.00014347     	5.2440677e-06
0.000143875    	5.2762413e-06
0.00014428     	5.3057472e-06
0.000144685    	5.3307558e-06
0.00014509     	5.3563565e-06
0.000145495    	5.3892397e-06
0.000145901    	5.4295278e-06
0.000146306    	5.4744305e-06
0.000146711    	5.5176574e-06
0.000147116    	5.5559695e-06
0.000147521    	5.5936844e-06
0.000147926    	5.6390548e-06
0.000148331    	5.6917561e-06
0.000148737    	5.7501069e-06
0.000149142    	5.8075937e-06
0.000149547    	5.8578829e-06
0.000149952    	5.9053506e-06
0.000150357    	5.9593556e-06
0.000150762    	6.0264463e-06
0.000151168    	6.1046105e-06
0.000151573    	6.1831852e-06
0.000151978    	6.2518033e-06
0.000152383    	6.3095454e-06
0.000152788    	6.3687451e-06
0.000153193    	6.4430773e-06
0.000153598    	6.5345170e-06
0.000154004    	6.6318989e-06
0.000154409    	6.7217773e-06
0.000154814    	6.7951695e-06
0.000155219    	6.8593265e-06
0.000155624    	6.9306414e-06
0.000156029    	7.0196029e-06
0.000156434    	7.1237275e-06
0.00015684     	7.2285507e-06
0.000157245    	7.3212371e-06
0.00015765     	7.3951635e-06
0.000158055    	7.4618213e-06
0.00015846     	7.5369617e-06
0.000158865    	7.6309991e-06
0.00015927     	7.7370072e-06
0.000159675    	7.8408904e-06
0.000160081    	7.9305909e-06
0.000160486    	8.0025807e-06
0.000160891    	8.0685442e-06
0.000161296    	8.1449033e-06
0.000161701    	8.2388309e-06
0.000162106    	8.3398421e-06
0.000162511    	8.4387354e-06
0.000162917    	8.5267683e-06
0.000163322    	8.6012710e-06
0.000163727    	8.6698509e-06
0.000164132    	8.7472569e-06
0.000164537    	8.8410772e-06
0.000164942    	8.9427608e-06
0.000165347    	9.0451913e-06
0.000165752    	9.1396483e-06
0.000166158    	9.2209752e-06
0.000166563    	9.2922550e-06
0.000166968    	9.3681118e-06
0.000167373    	9.4562684e-06
0.000167778    	9.5527937e-06
0.000168183    	9.6519112e-06
0.000168588    	9.7455558e-06
0.000168993    	9.8298635e-06
0.000169399    	9.9066439e-06
0.000169804    	9.9838560e-06
0.000170209    	1.0070027e-05
0.000170614    	1.0165131e-05
0.000171019    	1.0263280e-05
0.000171424    	1.0357152e-05
0.000171829    	1.0440681e-05
0.000172235    	1.0514070e-05
0.00017264     	1.0584306e-05
0.000173045    	1.0662184e-05
0.00017345     	1.0749430e-05
0.000173855    	1.0840791e-05
0.00017426     	1.0926106e-05
0.000174665    	1.0999480e-05
0.00017507     	1.1060781e-05
0.000175476    	1.1122353e-05
0.000175881    	1.1194363e-05
0.000176286    	1.1278282e-05
0.000176691    	1.1362481e-05
0.000177096    	1.1438317e-05
0.000177501    	1.1502342e-05
0.000177906    	1.1555291e-05
0.000178312    	1.1607199e-05
0.000178717    	1.1672933e-05
0.000179122    	1.1749990e-05
0.000179527    	1.1826093e-05
0.000179932    	1.1888043e-05
0.000180337    	1.1934884e-05
0.000180742    	1.1971670e-05
0.000181147    	1.2009342e-05
0.000181553    	1.2063163e-05
0.000181958    	1.2134518e-05
0.000182363    	1.2207910e-05
0.000182768    	1.2267313e-05
0.000183173    	1.2307433e-05
0.000183578    	1.2335944e-05
0.000183983    	1.2364367e-05
0.000184388    	1.2407663e-05
0.000184794    	1.2468303e-05
0.000185199    	1.2538993e-05
0.000185604    	1.2598948e-05
0.000186009    	1.2635977e-05
0.000186414    	1.2657157e-05
0.000186819    	1.2671550e-05
0.000187224    	1.2700661e-05
0.000187629    	1.2754249e-05
0.000188035    	1.2827297e-05
0.00018844     	1.2893399e-05
0.000188845    	1.2934413e-05
0.00018925     	1.2954675e-05
0.000189655    	1.2973761e-05
0.00019006     	1.3006995e-05
0.000190465    	1.3064332e-05
0.000190871    	1.3136358e-05
0.000191276    	1.3205510e-05
0.000191681    	1.3253019e-05
0.000192086    	1.3282547e-05
0.000192491    	1.3302847e-05
0.000192896    	1.3335208e-05
0.000193301    	1.3394256e-05
0.000193706    	1.3471219e-05
0.000194112    	1.3545177e-05
0.000194517    	1.3598460e-05
0.000194922    	1.3635547e-05
0.000195327    	1.3667982e-05
0.000195732    	1.3711961e-05
0.000196137    	1.3780228e-05
0.000196542    	1.3862004e-05
0.000196948    	1.3937743e-05
0.000197353    	1.3989604e-05
0.000197758    	1.4026640e-05
0.000198163    	1.4065671e-05
0.000198568    	1.4120744e-05
0.000198973    	1.4200178e-05
0.000199378    	1.4288680e-05
0.000199783    	1.4366220e-05
0.000200189    	1.4421262e-05
0.000200594    	1.4466178e-05
0.000200999    	1.4516249e-05
0.000201404    	1.4580545e-05
0.000201809    	1.4664805e-05
0.000202214    	1.4753193e-05
0.000202619    	1.4826842e-05
0.000203024    	1.4880097e-05
0.00020343     	1.4927758e-05
0.000203835    	1.4984126e-05
0.00020424     	1.5058689e-05
0.000204645    	1.5151492e-05
0.00020505     	1.5241132e-05
0.000205455    	1.5312353e-05
0.00020586     	1.5363400e-05
0.000206266    	1.5411826e-05
0.000206671    	1.5471893e-05
0.000207076    	1.5553823e-05
0.000207481    	1.5647330e-05
0.000207886    	1.5731538e-05
0.000208291    	1.5794624e-05
0.000208696    	1.5840438e-05
0.000209101    	1.5890241e-05
0.000209506    	1.5956120e-05
0.000209912    	1.6042279e-05
0.000210317    	1.6135449e-05
0.000210722    	1.6214719e-05
0.000211127    	1.6270076e-05
0.000211532    	1.6307714e-05
0.000211937    	1.6354429e-05
0.000212342    	1.6418415e-05
0.000212748    	1.6504066e-05
0.000213153    	1.6592872e-05
0.000213558    	1.6665651e-05
0.000213963    	1.6714477e-05
0.000214368    	1.6750216e-05
0.000214773    	1.6796827e-05
0.000215178    	1.6861509e-05
0.000215583    	1.6943796e-05
0.000215989    	1.7028231e-05
0.000216394    	1.7098031e-05
0.000216799    	1.7144681e-05
0.000217204    	1.7178965e-05
0.000217609    	1.7226361e-05
0.000218014    	1.7290520e-05
0.000218419    	1.7375750e-05
0.000218824    	1.7464296e-05
0.00021923     	1.7537720e-05
0.000219635    	1.7587063e-05
0.00022004     	1.7624639e-05
0.000220445    	1.7674769e-05
0.00022085     	1.7741959e-05
0.000221255    	1.7826981e-05
0.00022166     	1.7916949e-05
0.000222066    	1.7994407e-05
0.000222471    	1.8052529e-05
0.000222876    	1.8100488e-05
0.000223281    	1.8157001e-05
0.000223686    	1.8229287e-05
0.000224091    	1.8322090e-05
0.000224496    	1.8419010e-05
0.000224901    	1.8502520e-05
0.000225307    	1.8568204e-05
0.000225712    	1.8626587e-05
0.000226117    	1.8691806e-05
0.000226522    	1.8773438e-05
0.000226927    	1.8873374e-05
0.000227332    	1.8976819e-05
0.000227737    	1.9071217e-05
0.000228143    	1.9150264e-05
0.000228548    	1.9218725e-05
0.000228953    	1.9291066e-05
0.000229358    	1.9380413e-05
0.000229763    	1.9489345e-05
0.000230168    	1.9601704e-05
0.000230573    	1.9705741e-05
0.000230978    	1.9790809e-05
0.000231383    	1.9866163e-05
0.000231789    	1.9947128e-05
0.000232194    	2.0048820e-05
0.000232599    	2.0168520e-05
0.000233004    	2.0290096e-05
0.000233409    	2.0398546e-05
0.000233814    	2.0487918e-05
0.000234219    	2.0569760e-05
0.000234624    	2.0662603e-05
0.000235029    	2.0777318e-05
0.000235435    	2.0906662e-05
0.00023584     	2.1035345e-05
0.000236245    	2.1146208e-05
0.00023665     	2.1238897e-05
0.000237055    	2.1332391e-05
0.00023746     	2.1440895e-05
0.000237865    	2.1570653e-05
0.00023827     	2.1707371e-05
0.000238675    	2.1837765e-05
0.000239081    	2.1949661e-05
0.000239486    	2.2048384e-05
0.000239891    	2.2151186e-05
0.000240296    	2.2273130e-05
0.000240701    	2.2411874e-05
0.000241106    	2.2554357e-05
0.000241511    	2.2682107e-05
0.000241916    	2.2793088e-05
0.000242321    	2.2900274e-05
0.000242727    	2.3018924e-05
0.000243132    	2.3154394e-05
0.000243537    	2.3300264e-05
0.000243942    	2.3441800e-05
0.000244347    	2.3563816e-05
0.000244752    	2.3674428e-05
0.000245157    	2.3786314e-05
0.000245562    	2.3912787e-05
0.000245967    	2.4054426e-05
0.000246373    	2.4201308e-05
0.000246778    	2.4337790e-05
0.000247183    	2.4456983e-05
0.000247588    	2.4567874e-05
0.000247993    	2.4686202e-05
0.000248398    	2.4819594e-05
0.000248803    	2.4964219e-05
0.000249208    	2.5107147e-05
0.000249613    	2.5234220e-05
0.000250019    	2.5344508e-05
0.000250424    	2.5454388e-05
0.000250829    	2.5572395e-05
0.000251234    	2.5705977e-05
0.000251639    	2.5849959e-05
0.000252044    	2.5985668e-05
0.000252449    	2.6100184e-05
0.000252854    	2.6207731e-05
0.000253259    	2.6319129e-05
0.000253665    	2.6438791e-05
0.00025407     	2.6569921e-05
0.000254475    	2.6699937e-05
0.00025488     	2.6819874e-05
0.000255285    	2.6934728e-05
0.00025569     	2.7045492e-05
0.000256095    	2.7154810e-05
0.0002565      	2.7267384e-05
0.000256905    	2.7387996e-05
0.000257311    	2.7508427e-05
0.000257716    	2.7630408e-05
0.000258121    	2.7747197e-05
0.000258526    	2.7853737e-05
0.000258931    	2.7956510e-05
0.000259336    	2.8064263e-05
0.000259741    	2.8178112e-05
0.000260146    	2.8295659e-05
0.000260551    	2.8411727e-05
0.000260957    	2.8517174e-05
0.000261362    	2.8614713e-05
0.000261767    	2.8713919e-05
0.000262172    	2.8819857e-05
0.000262577    	2.8932016e-05
0.000262982    	2.9048142e-05
0.000263387    	2.9156573e-05
0.000263792    	2.9253190e-05
0.000264197    	2.9344735e-05
0.000264603    	2.9438932e-05
0.000265008    	2.9542380e-05
0.000265413    	2.9650888e-05
0.000265818    	2.9760256e-05
0.000266223    	2.9861791e-05
0.000266628    	2.9950823e-05
0.000267033    	3.0036217e-05
0.000267438    	3.0128488e-05
0.000267843    	3.0229978e-05
0.000268249    	3.0336296e-05
0.000268654    	3.0440540e-05
0.000269059    	3.0531859e-05
0.000269464    	3.0613624e-05
0.000269869    	3.0697589e-05
0.000270274    	3.0789122e-05
0.000270679    	3.0891366e-05
0.000271084    	3.0996995e-05
0.000271489    	3.1088541e-05
0.000271895    	3.1168872e-05
0.0002723      	3.1247874e-05
0.000272705    	3.1333341e-05
0.00027311     	3.1431102e-05
0.000273515    	3.1536673e-05
0.00027392     	3.1631985e-05
0.000274325    	3.1713494e-05
0.00027473     	3.1790384e-05
0.000275135    	3.1868865e-05
0.000275541    	3.1960311e-05
0.000275946    	3.2060537e-05
0.000276351    	3.2155746e-05
0.000276756    	3.2240006e-05
0.000277161    	3.2312411e-05
0.000277566    	3.2387309e-05
0.000277971    	3.2472976e-05
0.000278376    	3.2567769e-05
0.000278781    	3.2664057e-05
0.000279187    	3.2747092e-05
0.000279592    	3.2817723e-05
0.000279997    	3.2889983e-05
0.000280402    	3.2969638e-05
0.000280807    	3.3059440e-05
0.000281212    	3.3152023e-05
0.000281617    	3.3230931e-05
0.000282022    	3.3299317e-05
0.000282427    	3.3366316e-05
0.000282833    	3.3439531e-05
0.000283238    	3.3525437e-05
0.000283643    	3.3612552e-05
0.000284048    	3.3686870e-05
0.000284453    	3.3748460e-05
0.000284858    	3.3809217e-05
0.000285263    	3.3877530e-05
0.000285668    	3.3958419e-05
0.000286073    	3.4042458e-05
0.000286479    	3.4112091e-05
0.000286884    	3.4168680e-05
0.000287289    	3.4223471e-05
0.000287694    	3.4285518e-05
0.000288099    	3.4359685e-05
0.000288504    	3.4436079e-05
0.000288909    	3.4499937e-05
0.000289314    	3.4548737e-05
0.000289719    	3.4596364e-05
0.000290125    	3.4654370e-05
0.00029053     	3.4722155e-05
0.000290935    	3.4790139e-05
0.00029134     	3.4846339e-05
0.000291745    	3.4889404e-05
0.00029215     	3.4931620e-05
0.000292555    	3.4981354e-05
0.00029296     	3.5040071e-05
0.000293365    	3.5097123e-05
0.000293771    	3.5144362e-05
0.000294176    	3.5180919e-05
0.000294581    	3.5217764e-05
0.000294986    	3.5259491e-05
0.000295391    	3.5305903e-05
0.000295796    	3.5351379e-05
0.000296201    	3.5390318e-05
0.000296606    	3.5421173e-05
0.000297011    	3.5449492e-05
0.000297417    	3.5479016e-05
0.000297822    	3.5511604e-05
0.000298227    	3.5543548e-05
0.000298632    	3.5571656e-05
0.000299037    	3.5594256e-05
0.000299442    	3.5614664e-05
0.000299847    	3.5634843e-05
0.000300253    	3.5656068e-05
0.000300658    	3.5674770e-05
0.000301063    	3.5689819e-05
0.000301468    	3.5701451e-05
0.000301873    	3.5711553e-05
0.000302278    	3.5722228e-05
0.000302683    	3.5731040e-05
0.000303089    	3.5737189e-05
0.000303494    	3.5739580e-05
0.000303899    	3.5741273e-05
0.000304304    	3.5741997e-05
0.000304709    	3.5740427e-05
0.000305114    	3.5735763e-05
0.000305519    	3.5729484e-05
0.000305924    	3.5721902e-05
0.00030633     	3.5712528e-05
0.000306735    	3.5701003e-05
0.00030714     	3.5687274e-05
0.000307545    	3.5671892e-05
0.00030795     	3.5655253e-05
0.000308355    	3.5637270e-05
0.00030876     	3.5617827e-05
0.000309166    	3.5596590e-05
0.000309571    	3.5573356e-05
0.000309976    	3.5549582e-05
0.000310381    	3.5524837e-05
0.000310786    	3.5498061e-05
0.000311191    	3.5469362e-05
0.000311596    	3.5439492e-05
0.000312001    	3.5407574e-05
0.000312407    	3.5373626e-05
0.000312812    	3.5338252e-05
0.000313217    	3.5301916e-05
0.000313622    	3.5264795e-05
0.000314027    	3.5226855e-05
0.000314432    	3.5187390e-05
0.000314837    	3.5146948e-05
0.000315243    	3.5105232e-05
0.000315648    	3.5063125e-05
0.000316053    	3.5019978e-05
0.000316458    	3.4975143e-05
0.000316863    	3.4929656e-05
0.000317268    	3.4883043e-05
0.000317673    	3.4834829e-05
0.000318078    	3.4785948e-05
0.000318484    	3.4735893e-05
0.000318889    	3.4686276e-05
0.000319294    	3.4634909e-05
0.000319699    	3.4583321e-05
0.000320104    	3.4531800e-05
0.000320509    	3.4478823e-05
0.000320914    	3.4426156e-05
0.00032132     	3.4373373e-05
0.000321725    	3.4320725e-05
0.00032213     	3.4267467e-05
0.000322535    	3.4214328e-05
0.00032294     	3.4159722e-05
0.000323345    	3.4103533e-05
0.00032375     	3.4047190e-05
0.000324155    	3.3990449e-05
0.000324561    	3.3935002e-05
0.000324966    	3.3880119e-05
0.000325371    	3.3825670e-05
0.000325776    	3.3771768e-05
0.000326181    	3.3717438e-05
0.000326586    	3.3663126e-05
0.000326991    	3.3608422e-05
0.000327397    	3.3554031e-05
0.000327802    	3.3500089e-05
0.000328207    	3.3446384e-05
0.000328612    	3.3392968e-05
0.000329017    	3.3339005e-05
0.000329422    	3.3285276e-05
0.000329827    	3.3231986e-05
0.000330232    	3.3179555e-05
0.000330638    	3.3127623e-05
0.000331043    	3.3075128e-05
0.000331448    	3.3022629e-05
0.000331853    	3.2970270e-05
0.000332258    	3.2916618e-05
0.000332663    	3.2864257e-05
0.000333068    	3.2811979e-05
0.000333474    	3.2759959e-05
0.000333879    	3.2707352e-05
0.000334284    	3.2655213e-05
0.000334689    	3.2603220e-05
0.000335094    	3.2550422e-05
0.000335499    	3.2497213e-05
0.000335904    	3.2444248e-05
0.000336309    	3.2391247e-05
0.000336715    	3.2338006e-05
0.00033712     	3.2284393e-05
0.000337525    	3.2230347e-05
0.00033793     	3.2176470e-05
0.000338335    	3.2122951e-05
0.00033874     	3.2068232e-05
0.000339145    	3.2013935e-05
0.000339551    	3.1958697e-05
0.000339956    	3.1904178e-05
0.000340361    	3.1848397e-05
0.000340766    	3.1792571e-05
0.000341171    	3.1736915e-05
0.000341576    	3.1679915e-05
0.000341981    	3.1622716e-05
0.000342387    	3.1565770e-05
0.000342792    	3.1508636e-05
0.000343197    	3.1451262e-05
0.000343602    	3.1393143e-05
0.000344007    	3.1334725e-05
0.000344412    	3.1275806e-05
0.000344817    	3.1216884e-05
0.000345222    	3.1157142e-05
0.000345628    	3.1097236e-05
0.000346033    	3.1037130e-05
0.000346438    	3.0976550e-05
0.000346843    	3.0915497e-05
0.000347248    	3.0854555e-05
0.000347653    	3.0792707e-05
0.000348058    	3.0730487e-05
0.000348464    	3.0668239e-05
0.000348869    	3.0605107e-05
0.000349274    	3.0541492e-05
0.000349679    	3.0477134e-05
0.000350084    	3.0412558e-05
0.000350489    	3.0347447e-05
0.000350894    	3.0281252e-05
0.000351299    	3.0214612e-05
0.000351705    	3.0147409e-05
0.00035211     	3.0079430e-05
0.000352515    	3.0010881e-05
0.00035292     	2.9941243e-05
0.000353325    	2.9871054e-05
0.00035373     	2.9800136e-05
0.000354135    	2.9728170e-05
0.000354541    	2.9655546e-05
0.000354946    	2.9582278e-05
0.000355351    	2.9508120e-05
0.000355756    	2.9433017e-05
0.000356161    	2.9357456e-05
0.000356566    	2.9280425e-05
0.000356971    	2.9203551e-05
0.000357376    	2.9125484e-05
0.000357782    	2.9047027e-05
0.000358187    	2.8967609e-05
0.000358592    	2.8887208e-05
0.000358997    	2.8806503e-05
0.000359402    	2.8724644e-05
0.000359807    	2.8642566e-05
0.000360212    	2.8559509e-05
0.000360618    	2.8475954e-05
0.000361023    	2.8391804e-05
0.000361428    	2.8307493e-05
0.000361833    	2.8222043e-05
0.000362238    	2.8136157e-05
0.000362643    	2.8050320e-05
0.000363048    	2.7963261e-05
0.000363453    	2.7875584e-05
0.000363859    	2.7788262e-05
0.000364264    	2.7699832e-05
0.000364669    	2.7611269e-05
0.000365074    	2.7522798e-05
0.000365479    	2.7432832e-05
0.000365884    	2.7343169e-05
0.000366289    	2.7252706e-05
0.000366695    	2.7161812e-05
0.0003671      	2.7070163e-05
0.000367505    	2.6978952e-05
0.00036791     	2.6886270e-05
0.000368315    	2.6793460e-05
0.00036872     	2.6700133e-05
0.000369125    	2.6605828e-05
0.00036953     	2.6511859e-05
0.000369936    	2.6417302e-05
0.000370341    	2.6322083e-05
0.000370746    	2.6225460e-05
0.000371151    	2.6129085e-05
0.000371556    	2.6032508e-05
0.000371961    	2.5935366e-05
0.000372366    	2.5837397e-05
0.000372772    	2.5739173e-05
0.000373177    	2.5640509e-05
0.000373582    	2.5540334e-05
0.000373987    	2.5440920e-05
0.000374392    	2.5340626e-05
0.000374797    	2.5239832e-05
0.000375202    	2.5138095e-05
0.000375607    	2.5036292e-05
0.000376013    	2.4933989e-05
0.000376418    	2.4831331e-05
0.000376823    	2.4727929e-05
0.000377228    	2.4623923e-05
0.000377633    	2.4519115e-05
0.000378038    	2.4414603e-05
0.000378443    	2.4309091e-05
0.000378849    	2.4203488e-05
0.000379254    	2.4096534e-05
0.000379659    	2.3989888e-05
0.000380064    	2.3882502e-05
0.000380469    	2.3774217e-05
0.000380874    	2.3666117e-05
0.000381279    	2.3557387e-05
0.000381685    	2.3448570e-05
0.00038209     	2.3338846e-05
0.000382495    	2.3229460e-05
0.0003829      	2.3119175e-05
0.000383305    	2.3008231e-05
0.00038371     	2.2897675e-05
0.000384115    	2.2786336e-05
0.00038452     	2.2674946e-05
0.000384926    	2.2562656e-05
0.000385331    	2.2450052e-05
0.000385736    	2.2337477e-05
0.000386141    	2.2224412e-05
0.000386546    	2.2111441e-05
0.000386951    	2.1997125e-05
0.000387356    	2.1883579e-05
0.000387762    	2.1768784e-05
0.000388167    	2.1654618e-05
0.000388572    	2.1539378e-05
0.000388977    	2.1424476e-05
0.000389382    	2.1308690e-05
0.000389787    	2.1193258e-05
0.000390192    	2.1077089e-05
0.000390597    	2.0960328e-05
0.000391003    	2.0843810e-05
0.000391408    	2.0726617e-05
0.000391813    	2.0609025e-05
0.000392218    	2.0492145e-05
0.000392623    	2.0373323e-05
0.000393028    	2.0255123e-05
0.000393433    	2.0135875e-05
0.000393839    	2.0015941e-05
0.000394244    	1.9896208e-05
0.000394649    	1.9775362e-05
0.000395054    	1.9654069e-05
0.000395459    	1.9531769e-05
0.000395864    	1.9409685e-05
0.000396269    	1.9286497e-05
0.000396674    	1.9161715e-05
0.00039708     	1.9036855e-05
0.000397485    	1.8911747e-05
0.00039789     	1.8785584e-05
0.000398295    	1.8658993e-05
0.0003987      	1.8531455e-05
0.000399105    	1.8402726e-05
0.00039951     	1.8273607e-05
0.000399916    	1.8143123e-05
0.000400321    	1.8012405e-05
0.000400726    	1.7879830e-05
0.000401131    	1.7746903e-05
0.000401536    	1.7612930e-05
0.000401941    	1.7478116e-05
0.000402346    	1.7341603e-05
0.000402751    	1.7205133e-05
0.000403157    	1.7067099e-05