# Region type : patch inlet
# Faces  :     285
# Area   :     1.5850195e-05
# Time         	average(U)	average(p)	average(T)	average(rho)
0              	(0.0000000e+00 0.0000000e+00 0.0000000e+00)	1.1000000e+05	2.9400000e+02	1.3004948e+00
4.82697e-07    	(1.7232924e+01 -1.2943841e-01 -1.4696441e+01)	1.0959490e+05	2.9368684e+02	1.2970863e+00
8.85764e-07    	(1.8056237e+01 -1.5290596e-01 -1.5277423e+01)	1.0958458e+05	2.9367624e+02	1.2970116e+00
1.28883e-06    	(1.8094261e+01 -1.8089857e-01 -1.5290645e+01)	1.0959026e+05	2.9367782e+02	1.2970718e+00
1.6919e-06     	(1.8415683e+01 -1.9641390e-01 -1.5574580e+01)	1.0957935e+05	2.9366671e+02	1.2969918e+00
2.09497e-06    	(1.9183300e+01 -1.3888089e-01 -1.6120443e+01)	1.0954465e+05	2.9363735e+02	1.2967106e+00
2.28068e-06    	(1.9380742e+01 -1.7152635e-01 -1.6259413e+01)	1.0953634e+05	2.9362972e+02	1.2966460e+00
2.4664e-06     	(1.9557503e+01 -1.6519697e-01 -1.6411457e+01)	1.0952817e+05	2.9362218e+02	1.2965824e+00
2.65212e-06    	(1.9864050e+01 -1.6120828e-01 -1.6663190e+01)	1.0951341e+05	2.9360960e+02	1.2964633e+00
2.83785e-06    	(2.0249213e+01 -1.6270740e-01 -1.6977126e+01)	1.0949426e+05	2.9359364e+02	1.2963070e+00
3.02358e-06    	(2.0618209e+01 -1.5284496e-01 -1.7238396e+01)	1.0947428e+05	2.9357705e+02	1.2961436e+00
3.20931e-06    	(2.1087193e+01 -1.6906819e-01 -1.7619057e+01)	1.0944994e+05	2.9355712e+02	1.2959433e+00
3.39504e-06    	(2.1414036e+01 -1.8249078e-01 -1.7913014e+01)	1.0943237e+05	2.9354236e+02	1.2958002e+00
3.58079e-06    	(2.1807772e+01 -1.8661822e-01 -1.8237225e+01)	1.0941118e+05	2.9352484e+02	1.2956266e+00
3.76653e-06    	(2.2212809e+01 -1.9543125e-01 -1.8572635e+01)	1.0938918e+05	2.9350669e+02	1.2954461e+00
3.95227e-06    	(2.2636172e+01 -2.0454057e-01 -1.8924824e+01)	1.0936579e+05	2.9348747e+02	1.2952538e+00
4.13801e-06    	(2.3079359e+01 -2.1247661e-01 -1.9292352e+01)	1.0934082e+05	2.9346703e+02	1.2950481e+00
4.32376e-06    	(2.3533765e+01 -2.1878421e-01 -1.9671758e+01)	1.0931462e+05	2.9344566e+02	1.2948320e+00
4.5095e-06     	(2.3997818e+01 -2.2525181e-01 -2.0060645e+01)	1.0928726e+05	2.9342338e+02	1.2946060e+00
4.69524e-06    	(2.4457814e+01 -2.3036376e-01 -2.0446449e+01)	1.0925946e+05	2.9340076e+02	1.2943764e+00
4.881e-06      	(2.4909440e+01 -2.3493862e-01 -2.0826785e+01)	1.0923152e+05	2.9337803e+02	1.2941455e+00
5.06679e-06    	(2.5347235e+01 -2.3886554e-01 -2.1196501e+01)	1.0920380e+05	2.9335546e+02	1.2939164e+00
5.25257e-06    	(2.5768334e+01 -2.4314730e-01 -2.1552622e+01)	1.0917654e+05	2.9333324e+02	1.2936912e+00
5.43835e-06    	(2.6173763e+01 -2.4831168e-01 -2.1895846e+01)	1.0914974e+05	2.9331137e+02	1.2934698e+00
5.62413e-06    	(2.6565041e+01 -2.5435010e-01 -2.2227137e+01)	1.0912332e+05	2.9328978e+02	1.2932517e+00
5.80991e-06    	(2.6943516e+01 -2.6159541e-01 -2.2546276e+01)	1.0909731e+05	2.9326851e+02	1.2930370e+00
5.99569e-06    	(2.7308735e+01 -2.6942425e-01 -2.2852958e+01)	1.0907182e+05	2.9324762e+02	1.2928267e+00
6.18147e-06    	(2.7660044e+01 -2.7766936e-01 -2.3147498e+01)	1.0904692e+05	2.9322719e+02	1.2926213e+00
6.36725e-06    	(2.7998689e+01 -2.8667626e-01 -2.3432110e+01)	1.0902254e+05	2.9320714e+02	1.2924203e+00
6.55304e-06    	(2.8327023e+01 -2.9609186e-01 -2.3708545e+01)	1.0899850e+05	2.9318737e+02	1.2922223e+00
6.73885e-06    	(2.8648519e+01 -3.0603170e-01 -2.3979042e+01)	1.0897460e+05	2.9316768e+02	1.2920252e+00
6.92463e-06    	(2.8964220e+01 -3.1700054e-01 -2.4244470e+01)	1.0895075e+05	2.9314803e+02	1.2918287e+00
7.11041e-06    	(2.9272321e+01 -3.2877376e-01 -2.4503655e+01)	1.0892711e+05	2.9312854e+02	1.2916339e+00
7.29619e-06    	(2.9571822e+01 -3.4094922e-01 -2.4755981e+01)	1.0890378e+05	2.9310929e+02	1.2914417e+00
7.48197e-06    	(2.9863022e+01 -3.5311561e-01 -2.5001829e+01)	1.0888075e+05	2.9309026e+02	1.2912520e+00
7.66775e-06    	(3.0147110e+01 -3.6537972e-01 -2.5241705e+01)	1.0885797e+05	2.9307141e+02	1.2910644e+00
7.85352e-06    	(3.0425935e+01 -3.7772956e-01 -2.5476916e+01)	1.0883534e+05	2.9305268e+02	1.2908781e+00
8.0393e-06     	(3.0698288e+01 -3.9002742e-01 -2.5706657e+01)	1.0881300e+05	2.9303417e+02	1.2906942e+00
8.22508e-06    	(3.0963341e+01 -4.0195582e-01 -2.5929967e+01)	1.0879109e+05	2.9301599e+02	1.2905139e+00
8.41086e-06    	(3.1221239e+01 -4.1338733e-01 -2.6146910e+01)	1.0876962e+05	2.9299814e+02	1.2903374e+00
8.59664e-06    	(3.1472654e+01 -4.2416320e-01 -2.6358241e+01)	1.0874857e+05	2.9298061e+02	1.2901643e+00
8.69667e-06    	(3.1606089e+01 -4.2977980e-01 -2.6470230e+01)	1.0873735e+05	2.9297126e+02	1.2900721e+00
8.79669e-06    	(3.1738561e+01 -4.3531134e-01 -2.6581280e+01)	1.0872618e+05	2.9296195e+02	1.2899804e+00
8.89672e-06    	(3.1869985e+01 -4.4071598e-01 -2.6691340e+01)	1.0871508e+05	2.9295269e+02	1.2898892e+00
8.99674e-06    	(3.2000204e+01 -4.4601655e-01 -2.6800286e+01)	1.0870406e+05	2.9294349e+02	1.2897987e+00
9.09677e-06    	(3.2129154e+01 -4.5123530e-01 -2.6908072e+01)	1.0869313e+05	2.9293436e+02	1.2897089e+00
9.19679e-06    	(3.2256834e+01 -4.5642507e-01 -2.7014728e+01)	1.0868229e+05	2.9292530e+02	1.2896200e+00
9.29682e-06    	(3.2383264e+01 -4.6163550e-01 -2.7120286e+01)	1.0867154e+05	2.9291632e+02	1.2895318e+00
9.39685e-06    	(3.2508541e+01 -4.6685237e-01 -2.7224838e+01)	1.0866088e+05	2.9290740e+02	1.2894443e+00
9.49687e-06    	(3.2632731e+01 -4.7212964e-01 -2.7328463e+01)	1.0865031e+05	2.9289854e+02	1.2893576e+00
9.5969e-06     	(3.2755937e+01 -4.7749479e-01 -2.7431225e+01)	1.0863981e+05	2.9288974e+02	1.2892715e+00
9.69692e-06    	(3.2878322e+01 -4.8294903e-01 -2.7533273e+01)	1.0862938e+05	2.9288099e+02	1.2891859e+00
9.79695e-06    	(3.3000033e+01 -4.8846750e-01 -2.7634715e+01)	1.0861900e+05	2.9287229e+02	1.2891008e+00
9.89697e-06    	(3.3121096e+01 -4.9405943e-01 -2.7735601e+01)	1.0860866e+05	2.9286362e+02	1.2890161e+00
9.997e-06      	(3.3241588e+01 -4.9970912e-01 -2.7836039e+01)	1.0859838e+05	2.9285498e+02	1.2889318e+00
1.0097e-05     	(3.3361516e+01 -5.0539839e-01 -2.7936048e+01)	1.0858813e+05	2.9284638e+02	1.2888479e+00
1.01971e-05    	(3.3480897e+01 -5.1110318e-01 -2.8035655e+01)	1.0857792e+05	2.9283780e+02	1.2887642e+00
1.02971e-05    	(3.3599782e+01 -5.1680461e-01 -2.8134934e+01)	1.0856775e+05	2.9282925e+02	1.2886809e+00
1.03971e-05    	(3.3718143e+01 -5.2247316e-01 -2.8233874e+01)	1.0855761e+05	2.9282073e+02	1.2885978e+00
1.04971e-05    	(3.3836006e+01 -5.2808196e-01 -2.8332504e+01)	1.0854751e+05	2.9281224e+02	1.2885151e+00
1.05972e-05    	(3.3953361e+01 -5.3361252e-01 -2.8430820e+01)	1.0853744e+05	2.9280377e+02	1.2884326e+00
1.06972e-05    	(3.4070194e+01 -5.3906913e-01 -2.8528810e+01)	1.0852741e+05	2.9279533e+02	1.2883505e+00
1.07972e-05    	(3.4186457e+01 -5.4447580e-01 -2.8626442e+01)	1.0851742e+05	2.9278692e+02	1.2882687e+00
1.08972e-05    	(3.4302119e+01 -5.4983258e-01 -2.8723694e+01)	1.0850748e+05	2.9277855e+02	1.2881872e+00
1.09973e-05    	(3.4417152e+01 -5.5511135e-01 -2.8820539e+01)	1.0849758e+05	2.9277022e+02	1.2881062e+00
1.10973e-05    	(3.4531582e+01 -5.6029063e-01 -2.8916889e+01)	1.0848774e+05	2.9276192e+02	1.2880257e+00
1.11973e-05    	(3.4645297e+01 -5.6536520e-01 -2.9012657e+01)	1.0847796e+05	2.9275367e+02	1.2879456e+00
1.12973e-05    	(3.4758172e+01 -5.7032599e-01 -2.9107770e+01)	1.0846825e+05	2.9274548e+02	1.2878662e+00
1.13974e-05    	(3.4870137e+01 -5.7513461e-01 -2.9202199e+01)	1.0845862e+05	2.9273735e+02	1.2877875e+00
1.14974e-05    	(3.4981108e+01 -5.7976164e-01 -2.9295892e+01)	1.0844907e+05	2.9272928e+02	1.2877094e+00
1.15974e-05    	(3.5091001e+01 -5.8421140e-01 -2.9388777e+01)	1.0843962e+05	2.9272128e+02	1.2876322e+00
1.16974e-05    	(3.5199792e+01 -5.8848117e-01 -2.9480828e+01)	1.0843026e+05	2.9271336e+02	1.2875557e+00
1.17975e-05    	(3.5307515e+01 -5.9256401e-01 -2.9572048e+01)	1.0842099e+05	2.9270551e+02	1.2874800e+00
1.18975e-05    	(3.5414192e+01 -5.9644728e-01 -2.9662425e+01)	1.0841182e+05	2.9269773e+02	1.2874051e+00
1.19975e-05    	(3.5519813e+01 -6.0011037e-01 -2.9751914e+01)	1.0840274e+05	2.9269002e+02	1.2873310e+00
1.20975e-05    	(3.5624330e+01 -6.0356426e-01 -2.9840486e+01)	1.0839376e+05	2.9268239e+02	1.2872578e+00
1.21976e-05    	(3.5727733e+01 -6.0677439e-01 -2.9928111e+01)	1.0838488e+05	2.9267483e+02	1.2871854e+00
1.22976e-05    	(3.5830096e+01 -6.0970777e-01 -3.0014807e+01)	1.0837610e+05	2.9266736e+02	1.2871138e+00
1.23976e-05    	(3.5931392e+01 -6.1237477e-01 -3.0100575e+01)	1.0836742e+05	2.9265995e+02	1.2870431e+00
1.24976e-05    	(3.6031587e+01 -6.1478468e-01 -3.0185404e+01)	1.0835884e+05	2.9265263e+02	1.2869732e+00
1.25977e-05    	(3.6130674e+01 -6.1694287e-01 -3.0269291e+01)	1.0835036e+05	2.9264538e+02	1.2869042e+00
1.26977e-05    	(3.6228699e+01 -6.1883474e-01 -3.0352273e+01)	1.0834198e+05	2.9263821e+02	1.2868360e+00
1.27977e-05    	(3.6325763e+01 -6.2045430e-01 -3.0434423e+01)	1.0833369e+05	2.9263111e+02	1.2867686e+00
1.28977e-05    	(3.6421864e+01 -6.2180812e-01 -3.0515728e+01)	1.0832548e+05	2.9262408e+02	1.2867019e+00
1.29978e-05    	(3.6516785e+01 -6.2292495e-01 -3.0596027e+01)	1.0831739e+05	2.9261713e+02	1.2866361e+00
1.30978e-05    	(3.6610393e+01 -6.2381703e-01 -3.0675229e+01)	1.0830940e+05	2.9261026e+02	1.2865713e+00
1.31978e-05    	(3.6702877e+01 -6.2441970e-01 -3.0753488e+01)	1.0830153e+05	2.9260348e+02	1.2865074e+00
1.32978e-05    	(3.6794284e+01 -6.2472230e-01 -3.0830856e+01)	1.0829375e+05	2.9259678e+02	1.2864444e+00
1.33978e-05    	(3.6884454e+01 -6.2475357e-01 -3.0907184e+01)	1.0828610e+05	2.9259017e+02	1.2863823e+00
1.34979e-05    	(3.6973316e+01 -6.2455713e-01 -3.0982420e+01)	1.0827856e+05	2.9258365e+02	1.2863213e+00
1.35979e-05    	(3.7060904e+01 -6.2414284e-01 -3.1056609e+01)	1.0827114e+05	2.9257722e+02	1.2862613e+00
1.36979e-05    	(3.7147258e+01 -6.2351274e-01 -3.1129798e+01)	1.0826384e+05	2.9257089e+02	1.2862023e+00
1.37979e-05    	(3.7232396e+01 -6.2269869e-01 -3.1201977e+01)	1.0825665e+05	2.9256464e+02	1.2861442e+00
1.38979e-05    	(3.7316368e+01 -6.2171680e-01 -3.1273176e+01)	1.0824957e+05	2.9255848e+02	1.2860871e+00
1.39979e-05    	(3.7399247e+01 -6.2058034e-01 -3.1343470e+01)	1.0824260e+05	2.9255240e+02	1.2860309e+00
1.40979e-05    	(3.7481096e+01 -6.1929089e-01 -3.1412870e+01)	1.0823573e+05	2.9254640e+02	1.2859755e+00
1.4198e-05     	(3.7562054e+01 -6.1783982e-01 -3.1481455e+01)	1.0822894e+05	2.9254046e+02	1.2859209e+00
1.4298e-05     	(3.7642160e+01 -6.1626581e-01 -3.1549302e+01)	1.0822224e+05	2.9253459e+02	1.2858669e+00
1.4398e-05     	(3.7721452e+01 -6.1457284e-01 -3.1616460e+01)	1.0821561e+05	2.9252877e+02	1.2858136e+00
1.4498e-05     	(3.7799946e+01 -6.1276776e-01 -3.1682951e+01)	1.0820905e+05	2.9252301e+02	1.2857609e+00
1.4598e-05     	(3.7877642e+01 -6.1086101e-01 -3.1748775e+01)	1.0820257e+05	2.9251731e+02	1.2857089e+00
1.4698e-05     	(3.7954582e+01 -6.0887017e-01 -3.1813972e+01)	1.0819616e+05	2.9251167e+02	1.2856574e+00
1.4798e-05     	(3.8030809e+01 -6.0681321e-01 -3.1878579e+01)	1.0818981e+05	2.9250607e+02	1.2856065e+00
1.48981e-05    	(3.8106390e+01 -6.0470975e-01 -3.1942659e+01)	1.0818352e+05	2.9250052e+02	1.2855560e+00
1.49981e-05    	(3.8181376e+01 -6.0257117e-01 -3.2006270e+01)	1.0817728e+05	2.9249501e+02	1.2855061e+00
1.50981e-05    	(3.8255804e+01 -6.0039832e-01 -3.2069442e+01)	1.0817109e+05	2.9248954e+02	1.2854565e+00
1.51981e-05    	(3.8329757e+01 -5.9818827e-01 -3.2132219e+01)	1.0816495e+05	2.9248410e+02	1.2854073e+00
1.52981e-05    	(3.8403288e+01 -5.9595865e-01 -3.2194633e+01)	1.0815883e+05	2.9247869e+02	1.2853583e+00
1.53981e-05    	(3.8476501e+01 -5.9372202e-01 -3.2256771e+01)	1.0815275e+05	2.9247329e+02	1.2853097e+00
1.54982e-05    	(3.8549461e+01 -5.9148683e-01 -3.2318697e+01)	1.0814668e+05	2.9246792e+02	1.2852611e+00
1.55982e-05    	(3.8622233e+01 -5.8925593e-01 -3.2380467e+01)	1.0814063e+05	2.9246255e+02	1.2852127e+00
1.56962e-05    	(3.8693445e+01 -5.8706285e-01 -3.2440910e+01)	1.0813470e+05	2.9245730e+02	1.2851653e+00
1.57943e-05    	(3.8764592e+01 -5.8485397e-01 -3.2501292e+01)	1.0812878e+05	2.9245204e+02	1.2851180e+00
1.58923e-05    	(3.8835736e+01 -5.8263630e-01 -3.2561679e+01)	1.0812284e+05	2.9244678e+02	1.2850705e+00
1.59904e-05    	(3.8906938e+01 -5.8041213e-01 -3.2622129e+01)	1.0811690e+05	2.9244151e+02	1.2850229e+00
1.60884e-05    	(3.8978272e+01 -5.7818068e-01 -3.2682677e+01)	1.0811093e+05	2.9243623e+02	1.2849752e+00
1.61865e-05    	(3.9049781e+01 -5.7594714e-01 -3.2743359e+01)	1.0810493e+05	2.9243092e+02	1.2849272e+00
1.62845e-05    	(3.9121512e+01 -5.7371270e-01 -3.2804219e+01)	1.0809891e+05	2.9242559e+02	1.2848790e+00
1.63826e-05    	(3.9193510e+01 -5.7147982e-01 -3.2865294e+01)	1.0809285e+05	2.9242023e+02	1.2848305e+00
1.64806e-05    	(3.9265812e+01 -5.6925441e-01 -3.2926619e+01)	1.0808675e+05	2.9241484e+02	1.2847816e+00
1.65787e-05    	(3.9338439e+01 -5.6704293e-01 -3.2988213e+01)	1.0808060e+05	2.9240942e+02	1.2847323e+00
1.66767e-05    	(3.9411426e+01 -5.6485022e-01 -3.3050097e+01)	1.0807441e+05	2.9240396e+02	1.2846827e+00
1.67748e-05    	(3.9484807e+01 -5.6268053e-01 -3.3112298e+01)	1.0806816e+05	2.9239846e+02	1.2846326e+00
1.68728e-05    	(3.9558626e+01 -5.6053588e-01 -3.3174864e+01)	1.0806186e+05	2.9239292e+02	1.2845820e+00
1.69709e-05    	(3.9632921e+01 -5.5841210e-01 -3.3237822e+01)	1.0805550e+05	2.9238733e+02	1.2845309e+00
1.70689e-05    	(3.9707701e+01 -5.5630945e-01 -3.3301180e+01)	1.0804908e+05	2.9238169e+02	1.2844793e+00
1.7167e-05     	(3.9782990e+01 -5.5423190e-01 -3.3364949e+01)	1.0804259e+05	2.9237600e+02	1.2844272e+00
1.7265e-05     	(3.9858803e+01 -5.5218329e-01 -3.3429148e+01)	1.0803604e+05	2.9237026e+02	1.2843744e+00
1.73631e-05    	(3.9935138e+01 -5.5017355e-01 -3.3493775e+01)	1.0802942e+05	2.9236447e+02	1.2843211e+00
1.74611e-05    	(4.0011982e+01 -5.4821275e-01 -3.3558818e+01)	1.0802272e+05	2.9235863e+02	1.2842672e+00
1.75592e-05    	(4.0089346e+01 -5.4630589e-01 -3.3624286e+01)	1.0801597e+05	2.9235273e+02	1.2842128e+00
1.76572e-05    	(4.0167227e+01 -5.4445935e-01 -3.3690174e+01)	1.0800914e+05	2.9234677e+02	1.2841577e+00
1.77553e-05    	(4.0245619e+01 -5.4267131e-01 -3.3756474e+01)	1.0800224e+05	2.9234076e+02	1.2841020e+00
1.78533e-05    	(4.0324517e+01 -5.4095272e-01 -3.3823201e+01)	1.0799526e+05	2.9233470e+02	1.2840457e+00
1.79514e-05    	(4.0403885e+01 -5.3929858e-01 -3.3890316e+01)	1.0798822e+05	2.9232858e+02	1.2839889e+00
1.80494e-05    	(4.0483711e+01 -5.3770983e-01 -3.3957812e+01)	1.0798112e+05	2.9232241e+02	1.2839314e+00
1.81475e-05    	(4.0563961e+01 -5.3618750e-01 -3.4025677e+01)	1.0797394e+05	2.9231619e+02	1.2838734e+00
1.82455e-05    	(4.0644625e+01 -5.3472572e-01 -3.4093913e+01)	1.0796670e+05	2.9230992e+02	1.2838148e+00
1.83436e-05    	(4.0725702e+01 -5.3333186e-01 -3.4162513e+01)	1.0795939e+05	2.9230359e+02	1.2837557e+00
1.84416e-05    	(4.0807194e+01 -5.3200516e-01 -3.4231470e+01)	1.0795202e+05	2.9229722e+02	1.2836960e+00
1.85396e-05    	(4.0889076e+01 -5.3073806e-01 -3.4300753e+01)	1.0794458e+05	2.9229079e+02	1.2836357e+00
1.86377e-05    	(4.0971335e+01 -5.2952380e-01 -3.4370322e+01)	1.0793709e+05	2.9228431e+02	1.2835750e+00
1.87357e-05    	(4.1053962e+01 -5.2836308e-01 -3.4440197e+01)	1.0792953e+05	2.9227779e+02	1.2835137e+00
1.88337e-05    	(4.1136924e+01 -5.2725038e-01 -3.4510365e+01)	1.0792191e+05	2.9227122e+02	1.2834518e+00
1.89318e-05    	(4.1220102e+01 -5.2622224e-01 -3.4580709e+01)	1.0791424e+05	2.9226461e+02	1.2833896e+00
1.90298e-05    	(4.1303440e+01 -5.2526945e-01 -3.4651185e+01)	1.0790653e+05	2.9225797e+02	1.2833270e+00
1.91279e-05    	(4.1386940e+01 -5.2437446e-01 -3.4721803e+01)	1.0789877e+05	2.9225130e+02	1.2832641e+00
1.92259e-05    	(4.1470605e+01 -5.2353541e-01 -3.4792563e+01)	1.0789098e+05	2.9224459e+02	1.2832008e+00
1.93239e-05    	(4.1554412e+01 -5.2275871e-01 -3.4863446e+01)	1.0788314e+05	2.9223785e+02	1.2831371e+00
1.9422e-05     	(4.1638301e+01 -5.2204934e-01 -3.4934422e+01)	1.0787527e+05	2.9223109e+02	1.2830732e+00
1.952e-05      	(4.1722243e+01 -5.2140246e-01 -3.5005472e+01)	1.0786737e+05	2.9222429e+02	1.2830089e+00
1.96181e-05    	(4.1806201e+01 -5.2080831e-01 -3.5076554e+01)	1.0785943e+05	2.9221748e+02	1.2829444e+00
1.97161e-05    	(4.1890150e+01 -5.2026467e-01 -3.5147630e+01)	1.0785148e+05	2.9221064e+02	1.2828797e+00
1.98141e-05    	(4.1974075e+01 -5.1976566e-01 -3.5218670e+01)	1.0784350e+05	2.9220379e+02	1.2828148e+00
1.99122e-05    	(4.2057933e+01 -5.1932142e-01 -3.5289616e+01)	1.0783550e+05	2.9219692e+02	1.2827498e+00
2.00102e-05    	(4.2141696e+01 -5.1892843e-01 -3.5360448e+01)	1.0782749e+05	2.9219005e+02	1.2826846e+00
2.01083e-05    	(4.2225340e+01 -5.1857256e-01 -3.5431139e+01)	1.0781947e+05	2.9218316e+02	1.2826194e+00
2.02063e-05    	(4.2308814e+01 -5.1826296e-01 -3.5501649e+01)	1.0781145e+05	2.9217627e+02	1.2825541e+00
2.03043e-05    	(4.2392095e+01 -5.1800566e-01 -3.5571958e+01)	1.0780343e+05	2.9216938e+02	1.2824888e+00
2.04024e-05    	(4.2475170e+01 -5.1779708e-01 -3.5642054e+01)	1.0779540e+05	2.9216249e+02	1.2824236e+00
2.05004e-05    	(4.2558014e+01 -5.1763434e-01 -3.5711921e+01)	1.0778738e+05	2.9215561e+02	1.2823583e+00
2.05984e-05    	(4.2640538e+01 -5.1751488e-01 -3.5781488e+01)	1.0777937e+05	2.9214873e+02	1.2822931e+00
2.06963e-05    	(4.2722775e+01 -5.1743433e-01 -3.5850794e+01)	1.0777138e+05	2.9214186e+02	1.2822281e+00
2.07943e-05    	(4.2804686e+01 -5.1738351e-01 -3.5919807e+01)	1.0776339e+05	2.9213499e+02	1.2821631e+00
2.08922e-05    	(4.2886229e+01 -5.1735857e-01 -3.5988492e+01)	1.0775542e+05	2.9212815e+02	1.2820983e+00
2.09902e-05    	(4.2967378e+01 -5.1735723e-01 -3.6056834e+01)	1.0774748e+05	2.9212132e+02	1.2820336e+00
2.10881e-05    	(4.3048111e+01 -5.1737518e-01 -3.6124815e+01)	1.0773956e+05	2.9211450e+02	1.2819692e+00
2.11861e-05    	(4.3128415e+01 -5.1741258e-01 -3.6192427e+01)	1.0773166e+05	2.9210771e+02	1.2819050e+00
2.1284e-05     	(4.3208290e+01 -5.1747362e-01 -3.6259674e+01)	1.0772380e+05	2.9210094e+02	1.2818410e+00
2.1382e-05     	(4.3287714e+01 -5.1755401e-01 -3.6326548e+01)	1.0771597e+05	2.9209419e+02	1.2817774e+00
2.148e-05      	(4.3366675e+01 -5.1765164e-01 -3.6393036e+01)	1.0770817e+05	2.9208747e+02	1.2817140e+00
2.15772e-05    	(4.3444579e+01 -5.1777329e-01 -3.6458647e+01)	1.0770046e+05	2.9208083e+02	1.2816513e+00
2.16745e-05    	(4.3521992e+01 -5.1791372e-01 -3.6523854e+01)	1.0769279e+05	2.9207422e+02	1.2815890e+00
2.17717e-05    	(4.3598906e+01 -5.1807020e-01 -3.6588645e+01)	1.0768516e+05	2.9206763e+02	1.2815270e+00
2.1869e-05     	(4.3675299e+01 -5.1823831e-01 -3.6653000e+01)	1.0767758e+05	2.9206108e+02	1.2814654e+00
2.19662e-05    	(4.3751167e+01 -5.1841457e-01 -3.6716914e+01)	1.0767004e+05	2.9205457e+02	1.2814042e+00
2.20635e-05    	(4.3826505e+01 -5.1859518e-01 -3.6780378e+01)	1.0766254e+05	2.9204808e+02	1.2813433e+00
2.21607e-05    	(4.3901329e+01 -5.1877314e-01 -3.6843379e+01)	1.0765509e+05	2.9204164e+02	1.2812828e+00
2.2258e-05     	(4.3975674e+01 -5.1894692e-01 -3.6905913e+01)	1.0764769e+05	2.9203523e+02	1.2812228e+00
2.23552e-05    	(4.4049483e+01 -5.1912667e-01 -3.6967967e+01)	1.0764033e+05	2.9202885e+02	1.2811631e+00
2.24525e-05    	(4.4122713e+01 -5.1931375e-01 -3.7029519e+01)	1.0763303e+05	2.9202252e+02	1.2811039e+00
2.25497e-05    	(4.4195373e+01 -5.1949416e-01 -3.7090586e+01)	1.0762578e+05	2.9201623e+02	1.2810451e+00
2.2647e-05     	(4.4267465e+01 -5.1967055e-01 -3.7151177e+01)	1.0761858e+05	2.9200998e+02	1.2809868e+00
2.27442e-05    	(4.4338992e+01 -5.1984582e-01 -3.7211297e+01)	1.0761144e+05	2.9200377e+02	1.2809290e+00
2.28415e-05    	(4.4409964e+01 -5.2001696e-01 -3.7270956e+01)	1.0760435e+05	2.9199761e+02	1.2808715e+00
2.29387e-05    	(4.4480380e+01 -5.2018416e-01 -3.7330149e+01)	1.0759731e+05	2.9199148e+02	1.2808146e+00
2.3036e-05     	(4.4550241e+01 -5.2034802e-01 -3.7388875e+01)	1.0759033e+05	2.9198539e+02	1.2807580e+00
2.31332e-05    	(4.4619550e+01 -5.2050897e-01 -3.7447136e+01)	1.0758339e+05	2.9197934e+02	1.2807020e+00
2.32305e-05    	(4.4688333e+01 -5.2068518e-01 -3.7504960e+01)	1.0757651e+05	2.9197334e+02	1.2806463e+00
2.33277e-05    	(4.4756584e+01 -5.2087287e-01 -3.7562345e+01)	1.0756968e+05	2.9196737e+02	1.2805911e+00
2.3425e-05     	(4.4824304e+01 -5.2106663e-01 -3.7619295e+01)	1.0756291e+05	2.9196145e+02	1.2805364e+00
2.35222e-05    	(4.4891515e+01 -5.2126578e-01 -3.7675833e+01)	1.0755618e+05	2.9195556e+02	1.2804820e+00
2.36195e-05    	(4.4958243e+01 -5.2146901e-01 -3.7731980e+01)	1.0754950e+05	2.9194971e+02	1.2804281e+00
2.37167e-05    	(4.5024524e+01 -5.2167273e-01 -3.7787766e+01)	1.0754287e+05	2.9194390e+02	1.2803746e+00
2.3814e-05     	(4.5090398e+01 -5.2187698e-01 -3.7843226e+01)	1.0753628e+05	2.9193812e+02	1.2803214e+00
2.39112e-05    	(4.5155891e+01 -5.2207901e-01 -3.7898380e+01)	1.0752973e+05	2.9193237e+02	1.2802686e+00
2.40085e-05    	(4.5221014e+01 -5.2227627e-01 -3.7953233e+01)	1.0752322e+05	2.9192665e+02	1.2802161e+00
2.41057e-05    	(4.5285786e+01 -5.2247029e-01 -3.8007792e+01)	1.0751674e+05	2.9192096e+02	1.2801639e+00
2.4203e-05     	(4.5350220e+01 -5.2266360e-01 -3.8062066e+01)	1.0751030e+05	2.9191530e+02	1.2801121e+00
2.43002e-05    	(4.5414317e+01 -5.2285341e-01 -3.8116057e+01)	1.0750390e+05	2.9190966e+02	1.2800605e+00
2.43975e-05    	(4.5478077e+01 -5.2303764e-01 -3.8169772e+01)	1.0749754e+05	2.9190406e+02	1.2800092e+00
2.44947e-05    	(4.5541531e+01 -5.2321893e-01 -3.8223227e+01)	1.0749120e+05	2.9189848e+02	1.2799582e+00
2.4592e-05     	(4.5604685e+01 -5.2340022e-01 -3.8276428e+01)	1.0748490e+05	2.9189292e+02	1.2799075e+00
2.46892e-05    	(4.5667544e+01 -5.2358067e-01 -3.8329383e+01)	1.0747863e+05	2.9188739e+02	1.2798571e+00
2.47865e-05    	(4.5730118e+01 -5.2375619e-01 -3.8382108e+01)	1.0747239e+05	2.9188188e+02	1.2798069e+00
2.48837e-05    	(4.5792426e+01 -5.2392838e-01 -3.8434625e+01)	1.0746617e+05	2.9187639e+02	1.2797569e+00
2.4981e-05     	(4.5854489e+01 -5.2410511e-01 -3.8486951e+01)	1.0745998e+05	2.9187092e+02	1.2797071e+00
2.50782e-05    	(4.5916330e+01 -5.2428986e-01 -3.8539102e+01)	1.0745380e+05	2.9186546e+02	1.2796575e+00
2.51755e-05    	(4.5977966e+01 -5.2448331e-01 -3.8591091e+01)	1.0744765e+05	2.9186002e+02	1.2796080e+00
2.52727e-05    	(4.6039411e+01 -5.2468621e-01 -3.8642932e+01)	1.0744152e+05	2.9185460e+02	1.2795587e+00
2.537e-05      	(4.6100676e+01 -5.2489851e-01 -3.8694632e+01)	1.0743540e+05	2.9184918e+02	1.2795096e+00
2.54672e-05    	(4.6161772e+01 -5.2511586e-01 -3.8746192e+01)	1.0742929e+05	2.9184378e+02	1.2794605e+00
2.55645e-05    	(4.6222737e+01 -5.2533105e-01 -3.8797612e+01)	1.0742320e+05	2.9183839e+02	1.2794116e+00
2.56617e-05    	(4.6283543e+01 -5.2555696e-01 -3.8848892e+01)	1.0741713e+05	2.9183301e+02	1.2793628e+00
2.5759e-05     	(4.6344235e+01 -5.2575469e-01 -3.8900055e+01)	1.0741106e+05	2.9182764e+02	1.2793141e+00
2.58562e-05    	(4.6404755e+01 -5.2595311e-01 -3.8951080e+01)	1.0740501e+05	2.9182228e+02	1.2792656e+00
2.59535e-05    	(4.6465090e+01 -5.2615468e-01 -3.9001957e+01)	1.0739898e+05	2.9181693e+02	1.2792171e+00
2.60507e-05    	(4.6525235e+01 -5.2636077e-01 -3.9052681e+01)	1.0739296e+05	2.9181160e+02	1.2791688e+00
2.6148e-05     	(4.6585184e+01 -5.2657185e-01 -3.9103243e+01)	1.0738696e+05	2.9180628e+02	1.2791207e+00
2.62452e-05    	(4.6644916e+01 -5.2678770e-01 -3.9153626e+01)	1.0738098e+05	2.9180097e+02	1.2790727e+00
2.63425e-05    	(4.6704407e+01 -5.2701157e-01 -3.9203811e+01)	1.0737502e+05	2.9179568e+02	1.2790249e+00
2.64397e-05    	(4.6763637e+01 -5.2724562e-01 -3.9253783e+01)	1.0736909e+05	2.9179041e+02	1.2789773e+00
2.6537e-05     	(4.6822591e+01 -5.2748864e-01 -3.9303531e+01)	1.0736318e+05	2.9178516e+02	1.2789299e+00
2.66342e-05    	(4.6881253e+01 -5.2773859e-01 -3.9353042e+01)	1.0735730e+05	2.9177994e+02	1.2788828e+00
2.67315e-05    	(4.6939617e+01 -5.2799516e-01 -3.9402316e+01)	1.0735145e+05	2.9177473e+02	1.2788359e+00
2.68287e-05    	(4.6997665e+01 -5.2825548e-01 -3.9451334e+01)	1.0734563e+05	2.9176955e+02	1.2787893e+00
2.6926e-05     	(4.7055351e+01 -5.2851650e-01 -3.9500059e+01)	1.0733984e+05	2.9176439e+02	1.2787429e+00
2.70232e-05    	(4.7112622e+01 -5.2877589e-01 -3.9548441e+01)	1.0733410e+05	2.9175927e+02	1.2786970e+00
2.71205e-05    	(4.7169417e+01 -5.2902952e-01 -3.9596427e+01)	1.0732840e+05	2.9175418e+02	1.2786514e+00
2.72177e-05    	(4.7225645e+01 -5.2927024e-01 -3.9643946e+01)	1.0732276e+05	2.9174914e+02	1.2786063e+00
2.7315e-05     	(4.7281222e+01 -5.2949461e-01 -3.9690928e+01)	1.0731719e+05	2.9174416e+02	1.2785618e+00
2.74122e-05    	(4.7336087e+01 -5.2970735e-01 -3.9737331e+01)	1.0731169e+05	2.9173922e+02	1.2785179e+00
2.75095e-05    	(4.7390193e+01 -5.2991278e-01 -3.9783112e+01)	1.0730628e+05	2.9173436e+02	1.2784747e+00
2.76067e-05    	(4.7443494e+01 -5.3011316e-01 -3.9828230e+01)	1.0730094e+05	2.9172955e+02	1.2784323e+00
2.7704e-05     	(4.7495949e+01 -5.3031422e-01 -3.9872651e+01)	1.0729571e+05	2.9172482e+02	1.2783906e+00
2.78012e-05    	(4.7547535e+01 -5.3052613e-01 -3.9916349e+01)	1.0729056e+05	2.9172017e+02	1.2783497e+00
2.78985e-05    	(4.7598198e+01 -5.3075089e-01 -3.9959280e+01)	1.0728552e+05	2.9171559e+02	1.2783097e+00
2.79957e-05    	(4.7647871e+01 -5.3098853e-01 -4.0001390e+01)	1.0728058e+05	2.9171109e+02	1.2782706e+00
2.8093e-05     	(4.7696489e+01 -5.3123443e-01 -4.0042619e+01)	1.0727576e+05	2.9170669e+02	1.2782325e+00
2.81902e-05    	(4.7743992e+01 -5.3147961e-01 -4.0082904e+01)	1.0727107e+05	2.9170238e+02	1.2781955e+00
2.82875e-05    	(4.7790278e+01 -5.3172912e-01 -4.0122168e+01)	1.0726652e+05	2.9169819e+02	1.2781596e+00
2.83847e-05    	(4.7835241e+01 -5.3197601e-01 -4.0160326e+01)	1.0726212e+05	2.9169410e+02	1.2781250e+00
2.8482e-05     	(4.7878783e+01 -5.3222022e-01 -4.0197295e+01)	1.0725787e+05	2.9169015e+02	1.2780918e+00
2.85792e-05    	(4.7920822e+01 -5.3246751e-01 -4.0233009e+01)	1.0725380e+05	2.9168632e+02	1.2780601e+00
2.86765e-05    	(4.7961284e+01 -5.3272287e-01 -4.0267406e+01)	1.0724991e+05	2.9168264e+02	1.2780299e+00
2.87737e-05    	(4.8000087e+01 -5.3298966e-01 -4.0300423e+01)	1.0724621e+05	2.9167911e+02	1.2780013e+00
2.8871e-05     	(4.8037168e+01 -5.3327140e-01 -4.0332000e+01)	1.0724271e+05	2.9167572e+02	1.2779744e+00
2.89682e-05    	(4.8072438e+01 -5.3356668e-01 -4.0362061e+01)	1.0723942e+05	2.9167250e+02	1.2779492e+00
2.90655e-05    	(4.8105816e+01 -5.3387178e-01 -4.0390537e+01)	1.0723634e+05	2.9166946e+02	1.2779260e+00
2.91627e-05    	(4.8137219e+01 -5.3419052e-01 -4.0417355e+01)	1.0723350e+05	2.9166659e+02	1.2779047e+00
2.92599e-05    	(4.8166558e+01 -5.3451990e-01 -4.0442438e+01)	1.0723090e+05	2.9166391e+02	1.2778854e+00
2.93572e-05    	(4.8193766e+01 -5.3485357e-01 -4.0465725e+01)	1.0722854e+05	2.9166142e+02	1.2778683e+00
2.94544e-05    	(4.8218760e+01 -5.3519011e-01 -4.0487146e+01)	1.0722645e+05	2.9165913e+02	1.2778534e+00
2.95517e-05    	(4.8241445e+01 -5.3553287e-01 -4.0506621e+01)	1.0722463e+05	2.9165706e+02	1.2778408e+00
2.96489e-05    	(4.8261758e+01 -5.3588155e-01 -4.0524098e+01)	1.0722309e+05	2.9165520e+02	1.2778306e+00
2.97462e-05    	(4.8279651e+01 -5.3623443e-01 -4.0539533e+01)	1.0722184e+05	2.9165357e+02	1.2778229e+00
2.98434e-05    	(4.8295074e+01 -5.3659220e-01 -4.0552885e+01)	1.0722088e+05	2.9165216e+02	1.2778176e+00
2.99407e-05    	(4.8307984e+01 -5.3695805e-01 -4.0564110e+01)	1.0722022e+05	2.9165099e+02	1.2778149e+00
3.00379e-05    	(4.8318334e+01 -5.3733783e-01 -4.0573163e+01)	1.0721987e+05	2.9165006e+02	1.2778148e+00
3.01352e-05    	(4.8326066e+01 -5.3773425e-01 -4.0579995e+01)	1.0721982e+05	2.9164936e+02	1.2778173e+00
3.02324e-05    	(4.8331118e+01 -5.3814703e-01 -4.0584557e+01)	1.0722010e+05	2.9164892e+02	1.2778226e+00
3.03297e-05    	(4.8333430e+01 -5.3857082e-01 -4.0586803e+01)	1.0722071e+05	2.9164873e+02	1.2778307e+00
3.04269e-05    	(4.8332933e+01 -5.3900213e-01 -4.0586676e+01)	1.0722165e+05	2.9164881e+02	1.2778416e+00
3.05241e-05    	(4.8329565e+01 -5.3944584e-01 -4.0584128e+01)	1.0722293e+05	2.9164914e+02	1.2778554e+00
3.06214e-05    	(4.8323260e+01 -5.3990823e-01 -4.0579105e+01)	1.0722457e+05	2.9164976e+02	1.2778722e+00
3.07186e-05    	(4.8313966e+01 -5.4039588e-01 -4.0571572e+01)	1.0722656e+05	2.9165064e+02	1.2778921e+00
3.08159e-05    	(4.8301670e+01 -5.4089990e-01 -4.0561532e+01)	1.0722890e+05	2.9165181e+02	1.2779150e+00
3.09131e-05    	(4.8286350e+01 -5.4141644e-01 -4.0548969e+01)	1.0723161e+05	2.9165326e+02	1.2779410e+00
3.10103e-05    	(4.8268009e+01 -5.4194531e-01 -4.0533879e+01)	1.0723469e+05	2.9165499e+02	1.2779700e+00
3.11076e-05    	(4.8246665e+01 -5.4248224e-01 -4.0516250e+01)	1.0723812e+05	2.9165700e+02	1.2780022e+00
3.12048e-05    	(4.8222274e+01 -5.4302270e-01 -4.0496048e+01)	1.0724191e+05	2.9165929e+02	1.2780374e+00
3.1302e-05     	(4.8194778e+01 -5.4355722e-01 -4.0473236e+01)	1.0724608e+05	2.9166187e+02	1.2780758e+00
3.13993e-05    	(4.8164151e+01 -5.4407880e-01 -4.0447794e+01)	1.0725062e+05	2.9166474e+02	1.2781174e+00
3.14965e-05    	(4.8130421e+01 -5.4458927e-01 -4.0419744e+01)	1.0725553e+05	2.9166790e+02	1.2781621e+00
3.15937e-05    	(4.8093613e+01 -5.4509391e-01 -4.0389115e+01)	1.0726081e+05	2.9167135e+02	1.2782099e+00
3.1691e-05     	(4.8053729e+01 -5.4559647e-01 -4.0355909e+01)	1.0726646e+05	2.9167507e+02	1.2782609e+00
3.17882e-05    	(4.8010774e+01 -5.4610736e-01 -4.0320144e+01)	1.0727246e+05	2.9167908e+02	1.2783150e+00
3.18855e-05    	(4.7964735e+01 -5.4663474e-01 -4.0281804e+01)	1.0727884e+05	2.9168338e+02	1.2783721e+00
3.19827e-05    	(4.7915712e+01 -5.4717604e-01 -4.0240923e+01)	1.0728557e+05	2.9168795e+02	1.2784323e+00
3.20799e-05    	(4.7863912e+01 -5.4770229e-01 -4.0197552e+01)	1.0729264e+05	2.9169279e+02	1.2784954e+00
3.21772e-05    	(4.7809289e+01 -5.4822881e-01 -4.0151784e+01)	1.0730005e+05	2.9169789e+02	1.2785614e+00
3.22744e-05    	(4.7751885e+01 -5.4876136e-01 -4.0103688e+01)	1.0730779e+05	2.9170325e+02	1.2786302e+00
3.23716e-05    	(4.7691821e+01 -5.4933114e-01 -4.0053375e+01)	1.0731584e+05	2.9170885e+02	1.2787017e+00
3.24689e-05    	(4.7629186e+01 -5.4993386e-01 -4.0000906e+01)	1.0732420e+05	2.9171469e+02	1.2787758e+00
3.25661e-05    	(4.7564080e+01 -5.5055629e-01 -3.9946355e+01)	1.0733286e+05	2.9172076e+02	1.2788524e+00
3.26634e-05    	(4.7496610e+01 -5.5118565e-01 -3.9889824e+01)	1.0734180e+05	2.9172704e+02	1.2789314e+00
3.27606e-05    	(4.7426894e+01 -5.5182687e-01 -3.9831398e+01)	1.0735100e+05	2.9173354e+02	1.2790127e+00