# Region type : patch inlet
# Faces  :     286
# Area   :     1.5738454e-05
# Time         	average(U)	average(p)	average(T)	average(rho)
0              	(0.0000000e+00 0.0000000e+00 0.0000000e+00)	1.1000000e+05	2.9400000e+02	1.3004948e+00
4.83925e-07    	(1.7379166e+01 -7.3124658e-03 -1.4940744e+01)	1.0957480e+05	2.9367142e+02	1.2969163e+00
8.8826e-07     	(1.7361083e+01 -4.9012142e-02 -1.4851550e+01)	1.0960361e+05	2.9369078e+02	1.2971725e+00
1.29259e-06    	(1.7059477e+01 -3.1259396e-02 -1.4558552e+01)	1.0962461e+05	2.9370409e+02	1.2973623e+00
1.69693e-06    	(1.6544828e+01 -2.6430602e-02 -1.4120459e+01)	1.0965044e+05	2.9372108e+02	1.2975928e+00
2.10126e-06    	(1.6093474e+01 -3.4486492e-03 -1.3719067e+01)	1.0967295e+05	2.9373552e+02	1.2977953e+00
2.5056e-06     	(1.5844025e+01 1.4867345e-02 -1.3469895e+01)	1.0968673e+05	2.9374329e+02	1.2979241e+00
2.90993e-06    	(1.5705762e+01 1.2882507e-02 -1.3335029e+01)	1.0969596e+05	2.9374758e+02	1.2980144e+00
3.31427e-06    	(1.5549133e+01 1.4376605e-02 -1.3205231e+01)	1.0970591e+05	2.9375242e+02	1.2981108e+00
3.7186e-06     	(1.5446454e+01 1.4865663e-02 -1.3137521e+01)	1.0971342e+05	2.9375538e+02	1.2981864e+00
4.12294e-06    	(1.5400830e+01 2.0195476e-02 -1.3121355e+01)	1.0971843e+05	2.9375644e+02	1.2982411e+00
4.52728e-06    	(1.5393982e+01 2.2791540e-02 -1.3127359e+01)	1.0972200e+05	2.9375640e+02	1.2982836e+00
4.9316e-06     	(1.5451064e+01 3.1236803e-02 -1.3175476e+01)	1.0972339e+05	2.9375469e+02	1.2983076e+00
5.33592e-06    	(1.5525419e+01 2.8286491e-02 -1.3235450e+01)	1.0972416e+05	2.9375249e+02	1.2983263e+00
5.74025e-06    	(1.5660910e+01 2.5304975e-02 -1.3349992e+01)	1.0972250e+05	2.9374845e+02	1.2983245e+00
6.1446e-06     	(1.5873180e+01 2.6357491e-02 -1.3531474e+01)	1.0971761e+05	2.9374194e+02	1.2982955e+00
6.54898e-06    	(1.6152531e+01 1.9378658e-02 -1.3773042e+01)	1.0970962e+05	2.9373305e+02	1.2982402e+00
6.95339e-06    	(1.6535999e+01 1.5650615e-02 -1.4100055e+01)	1.0969689e+05	2.9372053e+02	1.2981449e+00
7.35798e-06    	(1.7008168e+01 1.5664045e-02 -1.4498890e+01)	1.0967960e+05	2.9370453e+02	1.2980110e+00
7.76253e-06    	(1.7559737e+01 1.6098602e-02 -1.4965390e+01)	1.0965775e+05	2.9368502e+02	1.2978385e+00
8.16708e-06    	(1.8175134e+01 1.9677129e-02 -1.5486456e+01)	1.0963177e+05	2.9366236e+02	1.2976311e+00
8.57163e-06    	(1.8843533e+01 2.2912145e-02 -1.6054413e+01)	1.0960196e+05	2.9363675e+02	1.2973912e+00
8.97618e-06    	(1.9544902e+01 2.3494688e-02 -1.6651490e+01)	1.0956914e+05	2.9360884e+02	1.2971259e+00
9.38073e-06    	(2.0266970e+01 2.4936775e-02 -1.7266536e+01)	1.0953383e+05	2.9357902e+02	1.2968396e+00
9.78526e-06    	(2.0981636e+01 2.3083220e-02 -1.7877377e+01)	1.0949732e+05	2.9354826e+02	1.2965429e+00
1.01898e-05    	(2.1675675e+01 1.7408770e-02 -1.8471925e+01)	1.0946043e+05	2.9351721e+02	1.2962431e+00
1.05943e-05    	(2.2350690e+01 1.3624740e-02 -1.9049720e+01)	1.0942329e+05	2.9348595e+02	1.2959410e+00
1.09989e-05    	(2.2984007e+01 8.5661793e-03 -1.9590749e+01)	1.0938731e+05	2.9345557e+02	1.2956488e+00
1.14035e-05    	(2.3584427e+01 5.1648151e-03 -2.0102576e+01)	1.0935233e+05	2.9342596e+02	1.2953649e+00
1.1808e-05     	(2.4140728e+01 2.4713069e-03 -2.0576177e+01)	1.0931921e+05	2.9339776e+02	1.2950968e+00
1.22126e-05    	(2.4642975e+01 -1.4656405e-03 -2.1003731e+01)	1.0928877e+05	2.9337162e+02	1.2948513e+00
1.26172e-05    	(2.5100968e+01 -4.9698005e-03 -2.1394270e+01)	1.0926078e+05	2.9334735e+02	1.2946265e+00
1.30218e-05    	(2.5521444e+01 -4.7991752e-03 -2.1753694e+01)	1.0923502e+05	2.9332478e+02	1.2944206e+00
1.34266e-05    	(2.5883309e+01 -8.3809330e-03 -2.2063433e+01)	1.0921289e+05	2.9330501e+02	1.2942454e+00
1.38313e-05    	(2.6210872e+01 -1.1996244e-02 -2.2344998e+01)	1.0919314e+05	2.9328706e+02	1.2940903e+00
1.42361e-05    	(2.6522664e+01 -1.3550010e-02 -2.2613217e+01)	1.0917474e+05	2.9327015e+02	1.2939467e+00
1.4641e-05     	(2.6807559e+01 -1.6374454e-02 -2.2857310e+01)	1.0915825e+05	2.9325471e+02	1.2938193e+00
1.50458e-05    	(2.7084109e+01 -1.6581296e-02 -2.3094061e+01)	1.0914240e+05	2.9323976e+02	1.2936973e+00
1.54506e-05    	(2.7351490e+01 -1.6509300e-02 -2.3322732e+01)	1.0912710e+05	2.9322523e+02	1.2935799e+00
1.58553e-05    	(2.7617668e+01 -1.5729454e-02 -2.3550091e+01)	1.0911171e+05	2.9321064e+02	1.2934618e+00
1.62601e-05    	(2.7892184e+01 -1.2725596e-02 -2.3784624e+01)	1.0909550e+05	2.9319542e+02	1.2933368e+00
1.66649e-05    	(2.8174011e+01 -8.5963796e-03 -2.4025430e+01)	1.0907843e+05	2.9317952e+02	1.2932043e+00
1.70696e-05    	(2.8465955e+01 -3.6944541e-03 -2.4274976e+01)	1.0906020e+05	2.9316274e+02	1.2930621e+00
1.74743e-05    	(2.8769780e+01 1.6885197e-03 -2.4534802e+01)	1.0904070e+05	2.9314497e+02	1.2929091e+00
1.78791e-05    	(2.9083115e+01 7.0334939e-03 -2.4802890e+01)	1.0902008e+05	2.9312634e+02	1.2927466e+00
1.82838e-05    	(2.9403891e+01 1.2544432e-02 -2.5077414e+01)	1.0899852e+05	2.9310699e+02	1.2925761e+00
1.86885e-05    	(2.9726488e+01 1.7692193e-02 -2.5353411e+01)	1.0897648e+05	2.9308726e+02	1.2924015e+00
1.90933e-05    	(3.0045918e+01 2.2069397e-02 -2.5626384e+01)	1.0895438e+05	2.9306748e+02	1.2922263e+00
1.9498e-05     	(3.0360065e+01 2.6414160e-02 -2.5894827e+01)	1.0893243e+05	2.9304782e+02	1.2920525e+00
1.99027e-05    	(3.0664744e+01 3.0915341e-02 -2.6155718e+01)	1.0891096e+05	2.9302852e+02	1.2918827e+00
2.03075e-05    	(3.0956114e+01 3.2789310e-02 -2.6405210e+01)	1.0889039e+05	2.9300991e+02	1.2917205e+00
2.07124e-05    	(3.1240689e+01 3.2731056e-02 -2.6648395e+01)	1.0887036e+05	2.9299172e+02	1.2915629e+00
2.11172e-05    	(3.1525330e+01 3.5159383e-02 -2.6891557e+01)	1.0885029e+05	2.9297349e+02	1.2914048e+00
2.1522e-05     	(3.1803917e+01 3.5890331e-02 -2.7129969e+01)	1.0883059e+05	2.9295556e+02	1.2912500e+00
2.19269e-05    	(3.2083604e+01 3.5901272e-02 -2.7369506e+01)	1.0881073e+05	2.9293749e+02	1.2910938e+00
2.23317e-05    	(3.2368402e+01 3.5992170e-02 -2.7613660e+01)	1.0879032e+05	2.9291901e+02	1.2909329e+00
2.27365e-05    	(3.2658107e+01 3.5352602e-02 -2.7862369e+01)	1.0876931e+05	2.9290006e+02	1.2907670e+00
2.31414e-05    	(3.2955573e+01 3.4463927e-02 -2.8117744e+01)	1.0874742e+05	2.9288044e+02	1.2905936e+00
2.35462e-05    	(3.3261694e+01 3.3457517e-02 -2.8380196e+01)	1.0872455e+05	2.9286005e+02	1.2904118e+00
2.3951e-05     	(3.3576799e+01 3.2094438e-02 -2.8649919e+01)	1.0870061e+05	2.9283884e+02	1.2902209e+00
2.43559e-05    	(3.3900927e+01 3.0678998e-02 -2.8927013e+01)	1.0867557e+05	2.9281678e+02	1.2900207e+00
2.47607e-05    	(3.4232032e+01 2.9265399e-02 -2.9209788e+01)	1.0864957e+05	2.9279397e+02	1.2898123e+00
2.51655e-05    	(3.4567991e+01 2.7877386e-02 -2.9496398e+01)	1.0862276e+05	2.9277053e+02	1.2895971e+00
2.55703e-05    	(3.4906331e+01 2.6563334e-02 -2.9784633e+01)	1.0859537e+05	2.9274665e+02	1.2893768e+00
2.59751e-05    	(3.5244336e+01 2.5425527e-02 -3.0072205e+01)	1.0856765e+05	2.9272250e+02	1.2891538e+00
2.63799e-05    	(3.5579024e+01 2.4415969e-02 -3.0356722e+01)	1.0853988e+05	2.9269831e+02	1.2889303e+00
2.67847e-05    	(3.5907238e+01 2.3441312e-02 -3.0635608e+01)	1.0851238e+05	2.9267431e+02	1.2887090e+00
2.71895e-05    	(3.6226566e+01 2.2554190e-02 -3.0906852e+01)	1.0848541e+05	2.9265072e+02	1.2884921e+00
2.75943e-05    	(3.6533801e+01 2.1814187e-02 -3.1167879e+01)	1.0845931e+05	2.9262781e+02	1.2882828e+00
2.79992e-05    	(3.6827203e+01 2.1203835e-02 -3.1417360e+01)	1.0843432e+05	2.9260574e+02	1.2880827e+00
2.84041e-05    	(3.7105622e+01 2.0779628e-02 -3.1654409e+01)	1.0841058e+05	2.9258465e+02	1.2878933e+00
2.8809e-05     	(3.7368297e+01 2.0243441e-02 -3.1878385e+01)	1.0838825e+05	2.9256463e+02	1.2877158e+00
2.92139e-05    	(3.7616015e+01 1.9775454e-02 -3.2089880e+01)	1.0836727e+05	2.9254565e+02	1.2875498e+00
2.96187e-05    	(3.7849439e+01 1.9465293e-02 -3.2289430e+01)	1.0834762e+05	2.9252771e+02	1.2873951e+00
3.00236e-05    	(3.8070509e+01 1.9121231e-02 -3.2478460e+01)	1.0832916e+05	2.9251068e+02	1.2872504e+00
3.04285e-05    	(3.8280945e+01 1.8673607e-02 -3.2658393e+01)	1.0831171e+05	2.9249444e+02	1.2871144e+00
3.08334e-05    	(3.8482756e+01 1.8160167e-02 -3.2831086e+01)	1.0829508e+05	2.9247882e+02	1.2869853e+00
3.12383e-05    	(3.8678597e+01 1.7668190e-02 -3.2998800e+01)	1.0827899e+05	2.9246363e+02	1.2868608e+00
3.16432e-05    	(3.8870236e+01 1.7117600e-02 -3.3163003e+01)	1.0826326e+05	2.9244871e+02	1.2867393e+00
3.20481e-05    	(3.9059210e+01 1.6571035e-02 -3.3324965e+01)	1.0824771e+05	2.9243393e+02	1.2866194e+00
3.2453e-05     	(3.9246051e+01 1.6047108e-02 -3.3485153e+01)	1.0823229e+05	2.9241925e+02	1.2865005e+00
3.2858e-05     	(3.9430424e+01 1.5430441e-02 -3.3643214e+01)	1.0821701e+05	2.9240467e+02	1.2863828e+00
3.32629e-05    	(3.9611446e+01 1.4733513e-02 -3.3798314e+01)	1.0820195e+05	2.9239027e+02	1.2862671e+00
3.36678e-05    	(3.9787346e+01 1.3963938e-02 -3.3948961e+01)	1.0818730e+05	2.9237618e+02	1.2861547e+00
3.40728e-05    	(3.9955452e+01 1.3071692e-02 -3.4092962e+01)	1.0817334e+05	2.9236262e+02	1.2860482e+00
3.44777e-05    	(4.0112084e+01 1.2030299e-02 -3.4227222e+01)	1.0816045e+05	2.9234989e+02	1.2859508e+00
3.48827e-05    	(4.0252921e+01 1.0857638e-02 -3.4348135e+01)	1.0814910e+05	2.9233834e+02	1.2858665e+00
3.52876e-05    	(4.0373281e+01 9.5451152e-03 -3.4451697e+01)	1.0813980e+05	2.9232839e+02	1.2857996e+00
3.56926e-05    	(4.0468861e+01 8.2150689e-03 -3.4534183e+01)	1.0813305e+05	2.9232040e+02	1.2857543e+00
3.60976e-05    	(4.0535668e+01 6.8395272e-03 -3.4592278e+01)	1.0812928e+05	2.9231472e+02	1.2857344e+00
3.65026e-05    	(4.0570226e+01 5.5827293e-03 -3.4623069e+01)	1.0812891e+05	2.9231166e+02	1.2857434e+00
3.69075e-05    	(4.0570825e+01 4.5573390e-03 -3.4625056e+01)	1.0813217e+05	2.9231142e+02	1.2857832e+00
3.73125e-05    	(4.0537939e+01 3.5369434e-03 -3.4598553e+01)	1.0813904e+05	2.9231396e+02	1.2858536e+00
3.77175e-05    	(4.0473699e+01 2.4600077e-03 -3.4545420e+01)	1.0814930e+05	2.9231914e+02	1.2859530e+00
3.81225e-05    	(4.0382015e+01 1.5602798e-03 -3.4468855e+01)	1.0816257e+05	2.9232663e+02	1.2860778e+00
3.85274e-05    	(4.0268285e+01 1.0974506e-03 -3.4373422e+01)	1.0817825e+05	2.9233600e+02	1.2862232e+00
3.89324e-05    	(4.0138692e+01 1.0087725e-03 -3.4264304e+01)	1.0819569e+05	2.9234673e+02	1.2863836e+00
3.93374e-05    	(3.9999832e+01 1.3529974e-03 -3.4147077e+01)	1.0821418e+05	2.9235827e+02	1.2865528e+00
3.97423e-05    	(3.9858257e+01 2.1824590e-03 -3.4027343e+01)	1.0823299e+05	2.9237006e+02	1.2867249e+00
4.01473e-05    	(3.9720041e+01 3.4689500e-03 -3.3910192e+01)	1.0825148e+05	2.9238160e+02	1.2868941e+00
4.05523e-05    	(3.9590736e+01 5.0390367e-03 -3.3800246e+01)	1.0826905e+05	2.9239242e+02	1.2870556e+00
4.09572e-05    	(3.9474634e+01 6.6861007e-03 -3.3701071e+01)	1.0828525e+05	2.9240219e+02	1.2872053e+00
4.13622e-05    	(3.9374768e+01 8.3284436e-03 -3.3615363e+01)	1.0829973e+05	2.9241062e+02	1.2873406e+00
4.17672e-05    	(3.9292807e+01 9.9209844e-03 -3.3544505e+01)	1.0831234e+05	2.9241761e+02	1.2874598e+00
4.21722e-05    	(3.9228968e+01 1.1422817e-02 -3.3488736e+01)	1.0832304e+05	2.9242312e+02	1.2875629e+00
4.25771e-05    	(3.9181946e+01 1.2785776e-02 -3.3447151e+01)	1.0833195e+05	2.9242725e+02	1.2876508e+00
4.29821e-05    	(3.9149663e+01 1.3962405e-02 -3.3418114e+01)	1.0833929e+05	2.9243016e+02	1.2877253e+00
4.33871e-05    	(3.9129630e+01 1.4920406e-02 -3.3399545e+01)	1.0834532e+05	2.9243206e+02	1.2877886e+00
4.37921e-05    	(3.9119310e+01 1.5591022e-02 -3.3389424e+01)	1.0835029e+05	2.9243315e+02	1.2878431e+00
4.41971e-05    	(3.9116094e+01 1.6020471e-02 -3.3385693e+01)	1.0835449e+05	2.9243363e+02	1.2878908e+00
4.4602e-05     	(3.9117721e+01 1.6267738e-02 -3.3386538e+01)	1.0835813e+05	2.9243368e+02	1.2879339e+00
4.5007e-05     	(3.9122146e+01 1.6390627e-02 -3.3390170e+01)	1.0836145e+05	2.9243349e+02	1.2879743e+00
4.5412e-05     	(3.9128093e+01 1.6391708e-02 -3.3395449e+01)	1.0836459e+05	2.9243315e+02	1.2880131e+00
4.5817e-05     	(3.9135116e+01 1.6300028e-02 -3.3401967e+01)	1.0836761e+05	2.9243273e+02	1.2880509e+00
4.6222e-05     	(3.9143501e+01 1.6120241e-02 -3.3409927e+01)	1.0837049e+05	2.9243219e+02	1.2880875e+00
4.6627e-05     	(3.9153913e+01 1.5892434e-02 -3.3419819e+01)	1.0837317e+05	2.9243151e+02	1.2881225e+00
4.70319e-05    	(3.9167375e+01 1.5637608e-02 -3.3432431e+01)	1.0837555e+05	2.9243059e+02	1.2881548e+00
4.74369e-05    	(3.9185051e+01 1.5351442e-02 -3.3448669e+01)	1.0837751e+05	2.9242934e+02	1.2881836e+00
4.78419e-05    	(3.9208301e+01 1.5048342e-02 -3.3469614e+01)	1.0837890e+05	2.9242765e+02	1.2882075e+00
4.82469e-05    	(3.9238598e+01 1.4729907e-02 -3.3496518e+01)	1.0837956e+05	2.9242541e+02	1.2882253e+00
4.86519e-05    	(3.9277298e+01 1.4330224e-02 -3.3530430e+01)	1.0837935e+05	2.9242250e+02	1.2882357e+00
4.90569e-05    	(3.9325280e+01 1.3880809e-02 -3.3572057e+01)	1.0837818e+05	2.9241883e+02	1.2882379e+00
4.94618e-05    	(3.9382781e+01 1.3407454e-02 -3.3621624e+01)	1.0837599e+05	2.9241439e+02	1.2882315e+00
4.98668e-05    	(3.9449283e+01 1.2939634e-02 -3.3678677e+01)	1.0837285e+05	2.9240920e+02	1.2882169e+00
5.02718e-05    	(3.9524419e+01 1.2431437e-02 -3.3742920e+01)	1.0836876e+05	2.9240329e+02	1.2881944e+00
5.06768e-05    	(3.9607398e+01 1.1889395e-02 -3.3813659e+01)	1.0836383e+05	2.9239672e+02	1.2881646e+00
5.10818e-05    	(3.9697267e+01 1.1293227e-02 -3.3890015e+01)	1.0835813e+05	2.9238957e+02	1.2881283e+00
5.14868e-05    	(3.9792824e+01 1.0693133e-02 -3.3970982e+01)	1.0835180e+05	2.9238192e+02	1.2880866e+00
5.18918e-05    	(3.9892850e+01 1.0112542e-02 -3.4055575e+01)	1.0834495e+05	2.9237387e+02	1.2880406e+00
5.22967e-05    	(3.9995988e+01 9.5820738e-03 -3.4142665e+01)	1.0833773e+05	2.9236554e+02	1.2879914e+00
5.27017e-05    	(4.0100755e+01 9.1657131e-03 -3.4231013e+01)	1.0833031e+05	2.9235704e+02	1.2879404e+00
5.31067e-05    	(4.0205655e+01 8.8798785e-03 -3.4319394e+01)	1.0832283e+05	2.9234851e+02	1.2878890e+00
5.35117e-05    	(4.0309422e+01 8.7241633e-03 -3.4406786e+01)	1.0831544e+05	2.9234004e+02	1.2878383e+00
5.39167e-05    	(4.0410870e+01 8.6951599e-03 -3.4492237e+01)	1.0830826e+05	2.9233174e+02	1.2877894e+00
5.43217e-05    	(4.0508991e+01 8.7874674e-03 -3.4574944e+01)	1.0830141e+05	2.9232369e+02	1.2877433e+00
5.47266e-05    	(4.0603046e+01 8.9958713e-03 -3.4654339e+01)	1.0829496e+05	2.9231595e+02	1.2877007e+00
5.51316e-05    	(4.0692460e+01 9.2973139e-03 -3.4729972e+01)	1.0828899e+05	2.9230858e+02	1.2876620e+00
5.55366e-05    	(4.0776966e+01 9.6454153e-03 -3.4801624e+01)	1.0828353e+05	2.9230160e+02	1.2876277e+00
5.59416e-05    	(4.0856781e+01 1.0038982e-02 -3.4869525e+01)	1.0827855e+05	2.9229500e+02	1.2875976e+00
5.63466e-05    	(4.0932370e+01 1.0454474e-02 -3.4934057e+01)	1.0827402e+05	2.9228873e+02	1.2875711e+00
5.67516e-05    	(4.1004337e+01 1.0859660e-02 -3.4995713e+01)	1.0826986e+05	2.9228276e+02	1.2875479e+00
5.71566e-05    	(4.1073411e+01 1.1210673e-02 -3.5055094e+01)	1.0826600e+05	2.9227703e+02	1.2875272e+00
5.75615e-05    	(4.1140418e+01 1.1477337e-02 -3.5112900e+01)	1.0826235e+05	2.9227145e+02	1.2875083e+00
5.79665e-05    	(4.1206306e+01 1.1648421e-02 -3.5169904e+01)	1.0825881e+05	2.9226596e+02	1.2874903e+00
5.83715e-05    	(4.1272072e+01 1.1717479e-02 -3.5226894e+01)	1.0825527e+05	2.9226046e+02	1.2874723e+00
5.87765e-05    	(4.1338591e+01 1.1664873e-02 -3.5284533e+01)	1.0825162e+05	2.9225489e+02	1.2874534e+00
5.91815e-05    	(4.1406631e+01 1.1468735e-02 -3.5343414e+01)	1.0824779e+05	2.9224917e+02	1.2874330e+00
5.95865e-05    	(4.1476845e+01 1.1138000e-02 -3.5404040e+01)	1.0824370e+05	2.9224326e+02	1.2874103e+00
5.99914e-05    	(4.1549654e+01 1.0695335e-02 -3.5466731e+01)	1.0823930e+05	2.9223710e+02	1.2873851e+00
6.03964e-05    	(4.1625151e+01 1.0160907e-02 -3.5531527e+01)	1.0823459e+05	2.9223071e+02	1.2873572e+00
6.08014e-05    	(4.1703121e+01 9.5489319e-03 -3.5598235e+01)	1.0822959e+05	2.9222408e+02	1.2873267e+00
6.12064e-05    	(4.1783207e+01 8.8660079e-03 -3.5666555e+01)	1.0822433e+05	2.9221726e+02	1.2872941e+00
6.16114e-05    	(4.1864850e+01 8.1214728e-03 -3.5736000e+01)	1.0821888e+05	2.9221029e+02	1.2872599e+00
6.20164e-05    	(4.1947203e+01 7.3189023e-03 -3.5805847e+01)	1.0821333e+05	2.9220325e+02	1.2872248e+00
6.24214e-05    	(4.2029222e+01 6.4744308e-03 -3.5875220e+01)	1.0820781e+05	2.9219623e+02	1.2871900e+00
6.28263e-05    	(4.2109723e+01 5.5968554e-03 -3.5943149e+01)	1.0820245e+05	2.9218932e+02	1.2871565e+00
6.32313e-05    	(4.2187306e+01 4.6178886e-03 -3.6008358e+01)	1.0819740e+05	2.9218266e+02	1.2871256e+00
6.36363e-05    	(4.2261107e+01 3.6678215e-03 -3.6070308e+01)	1.0819276e+05	2.9217632e+02	1.2870983e+00
6.40413e-05    	(4.2329358e+01 2.6672586e-03 -3.6127692e+01)	1.0818872e+05	2.9217044e+02	1.2870760e+00
6.44463e-05    	(4.2390993e+01 1.6681434e-03 -3.6179636e+01)	1.0818539e+05	2.9216511e+02	1.2870599e+00
6.48513e-05    	(4.2445396e+01 7.1888454e-04 -3.6225582e+01)	1.0818287e+05	2.9216041e+02	1.2870505e+00
6.52563e-05    	(4.2492131e+01 -1.2673608e-04 -3.6265130e+01)	1.0818122e+05	2.9215638e+02	1.2870486e+00
6.56613e-05    	(4.2530469e+01 -8.9183861e-04 -3.6297722e+01)	1.0818052e+05	2.9215308e+02	1.2870547e+00
6.60663e-05    	(4.2559381e+01 -1.5792894e-03 -3.6322560e+01)	1.0818087e+05	2.9215059e+02	1.2870698e+00
6.64713e-05    	(4.2578412e+01 -2.1365848e-03 -3.6339229e+01)	1.0818231e+05	2.9214895e+02	1.2870942e+00
6.68763e-05    	(4.2587311e+01 -2.5600931e-03 -3.6347476e+01)	1.0818490e+05	2.9214819e+02	1.2871283e+00
6.72813e-05    	(4.2585830e+01 -2.8715768e-03 -3.6347029e+01)	1.0818865e+05	2.9214834e+02	1.2871723e+00
6.76863e-05    	(4.2573770e+01 -3.0759336e-03 -3.6337655e+01)	1.0819359e+05	2.9214941e+02	1.2872264e+00
6.80913e-05    	(4.2551067e+01 -3.1818793e-03 -3.6319241e+01)	1.0819974e+05	2.9215140e+02	1.2872908e+00
6.84963e-05    	(4.2518025e+01 -3.2202930e-03 -3.6292071e+01)	1.0820704e+05	2.9215429e+02	1.2873649e+00
6.89013e-05    	(4.2475199e+01 -3.1773758e-03 -3.6256606e+01)	1.0821543e+05	2.9215802e+02	1.2874484e+00
6.93063e-05    	(4.2423438e+01 -3.0951496e-03 -3.6213450e+01)	1.0822482e+05	2.9216252e+02	1.2875404e+00
6.97113e-05    	(4.2363890e+01 -2.9893614e-03 -3.6163437e+01)	1.0823510e+05	2.9216771e+02	1.2876399e+00
7.01163e-05    	(4.2297842e+01 -2.8609919e-03 -3.6107656e+01)	1.0824611e+05	2.9217347e+02	1.2877457e+00
7.05214e-05    	(4.2226719e+01 -2.7557106e-03 -3.6047280e+01)	1.0825771e+05	2.9217967e+02	1.2878564e+00
7.09264e-05    	(4.2151258e+01 -2.7233511e-03 -3.5982921e+01)	1.0826979e+05	2.9218625e+02	1.2879713e+00
7.13314e-05    	(4.2072586e+01 -2.7281202e-03 -3.5915622e+01)	1.0828222e+05	2.9219310e+02	1.2880890e+00
7.17364e-05    	(4.1992572e+01 -2.6896064e-03 -3.5847072e+01)	1.0829478e+05	2.9220004e+02	1.2882079e+00
7.21414e-05    	(4.1912829e+01 -2.6235379e-03 -3.5778588e+01)	1.0830730e+05	2.9220696e+02	1.2883265e+00
7.25464e-05    	(4.1834649e+01 -2.5833587e-03 -3.5711239e+01)	1.0831964e+05	2.9221373e+02	1.2884435e+00
7.29514e-05    	(4.1759509e+01 -2.5549550e-03 -3.5646391e+01)	1.0833164e+05	2.9222024e+02	1.2885576e+00
7.33564e-05    	(4.1689005e+01 -2.5472383e-03 -3.5585409e+01)	1.0834311e+05	2.9222634e+02	1.2886673e+00
7.37615e-05    	(4.1624441e+01 -2.5584400e-03 -3.5529360e+01)	1.0835392e+05	2.9223193e+02	1.2887713e+00
7.41665e-05    	(4.1566736e+01 -2.5641930e-03 -3.5479092e+01)	1.0836396e+05	2.9223693e+02	1.2888688e+00
7.45715e-05    	(4.1516862e+01 -2.5576802e-03 -3.5435564e+01)	1.0837313e+05	2.9224126e+02	1.2889589e+00
7.49765e-05    	(4.1475597e+01 -2.4796509e-03 -3.5399504e+01)	1.0838134e+05	2.9224484e+02	1.2890408e+00
7.53815e-05    	(4.1443620e+01 -2.3128855e-03 -3.5371491e+01)	1.0838852e+05	2.9224762e+02	1.2891139e+00
7.57865e-05    	(4.1421484e+01 -2.0444468e-03 -3.5352012e+01)	1.0839461e+05	2.9224957e+02	1.2891778e+00
7.61916e-05    	(4.1409525e+01 -1.6631174e-03 -3.5341352e+01)	1.0839958e+05	2.9225065e+02	1.2892322e+00
7.65966e-05    	(4.1407898e+01 -1.2453201e-03 -3.5339570e+01)	1.0840341e+05	2.9225086e+02	1.2892769e+00
7.70016e-05    	(4.1416561e+01 -7.8297930e-04 -3.5346607e+01)	1.0840612e+05	2.9225019e+02	1.2893120e+00
7.74066e-05    	(4.1435141e+01 -2.7986556e-04 -3.5362174e+01)	1.0840774e+05	2.9224869e+02	1.2893379e+00
7.78116e-05    	(4.1462994e+01 2.5514044e-04 -3.5385775e+01)	1.0840834e+05	2.9224640e+02	1.2893551e+00
7.82167e-05    	(4.1499440e+01 8.2398551e-04 -3.5416846e+01)	1.0840798e+05	2.9224337e+02	1.2893642e+00
7.86217e-05    	(4.1543711e+01 1.4174093e-03 -3.5454685e+01)	1.0840677e+05	2.9223968e+02	1.2893659e+00
7.90267e-05    	(4.1594831e+01 2.0570264e-03 -3.5498446e+01)	1.0840479e+05	2.9223540e+02	1.2893613e+00
7.94317e-05    	(4.1651736e+01 2.7339503e-03 -3.5547221e+01)	1.0840216e+05	2.9223063e+02	1.2893511e+00
7.98367e-05    	(4.1713200e+01 3.4145331e-03 -3.5599953e+01)	1.0839903e+05	2.9222545e+02	1.2893365e+00
8.02418e-05    	(4.1777846e+01 4.0840781e-03 -3.5655434e+01)	1.0839553e+05	2.9222000e+02	1.2893189e+00
8.06468e-05    	(4.1844291e+01 4.7653401e-03 -3.5712455e+01)	1.0839181e+05	2.9221438e+02	1.2892994e+00
8.10518e-05    	(4.1911290e+01 5.4414962e-03 -3.5769937e+01)	1.0838802e+05	2.9220871e+02	1.2892793e+00
8.14568e-05    	(4.1977652e+01 6.0800791e-03 -3.5826885e+01)	1.0838428e+05	2.9220307e+02	1.2892596e+00
8.18618e-05    	(4.2042335e+01 6.6402526e-03 -3.5882435e+01)	1.0838071e+05	2.9219757e+02	1.2892414e+00
8.22669e-05    	(4.2104458e+01 7.1049368e-03 -3.5935870e+01)	1.0837741e+05	2.9219226e+02	1.2892254e+00
8.26719e-05    	(4.2163259e+01 7.4819054e-03 -3.5986569e+01)	1.0837445e+05	2.9218723e+02	1.2892123e+00
8.30769e-05    	(4.2218089e+01 7.7293550e-03 -3.6033918e+01)	1.0837192e+05	2.9218253e+02	1.2892029e+00
8.34819e-05    	(4.2268621e+01 7.8653932e-03 -3.6077622e+01)	1.0836986e+05	2.9217818e+02	1.2891975e+00
8.38869e-05    	(4.2314659e+01 7.9010949e-03 -3.6117555e+01)	1.0836828e+05	2.9217422e+02	1.2891962e+00
8.42919e-05    	(4.2355975e+01 7.8269063e-03 -3.6153493e+01)	1.0836722e+05	2.9217064e+02	1.2891992e+00
8.46969e-05    	(4.2392568e+01 7.6298145e-03 -3.6185416e+01)	1.0836667e+05	2.9216747e+02	1.2892067e+00
8.51019e-05    	(4.2424522e+01 7.2887218e-03 -3.6213403e+01)	1.0836663e+05	2.9216469e+02	1.2892185e+00
8.55069e-05    	(4.2452183e+01 6.8624582e-03 -3.6237743e+01)	1.0836707e+05	2.9216228e+02	1.2892343e+00
8.59119e-05    	(4.2476058e+01 6.4042364e-03 -3.6258861e+01)	1.0836792e+05	2.9216019e+02	1.2892537e+00
8.63169e-05    	(4.2496486e+01 5.9150798e-03 -3.6277036e+01)	1.0836916e+05	2.9215839e+02	1.2892763e+00
8.67219e-05    	(4.2513803e+01 5.3567404e-03 -3.6292530e+01)	1.0837075e+05	2.9215686e+02	1.2893019e+00
8.71269e-05    	(4.2528372e+01 4.7304326e-03 -3.6305646e+01)	1.0837264e+05	2.9215557e+02	1.2893301e+00
8.75319e-05    	(4.2540680e+01 4.0638220e-03 -3.6316801e+01)	1.0837479e+05	2.9215448e+02	1.2893605e+00
8.79369e-05    	(4.2551213e+01 3.3946653e-03 -3.6326438e+01)	1.0837713e+05	2.9215354e+02	1.2893925e+00
8.83419e-05    	(4.2560482e+01 2.7388116e-03 -3.6335029e+01)	1.0837962e+05	2.9215271e+02	1.2894258e+00
8.87469e-05    	(4.2568853e+01 2.0715012e-03 -3.6342868e+01)	1.0838221e+05	2.9215195e+02	1.2894599e+00
8.91519e-05    	(4.2576710e+01 1.3821512e-03 -3.6350245e+01)	1.0838486e+05	2.9215125e+02	1.2894945e+00
8.95569e-05    	(4.2584474e+01 6.9641672e-04 -3.6357511e+01)	1.0838752e+05	2.9215055e+02	1.2895292e+00
8.99619e-05    	(4.2592580e+01 4.8386897e-05 -3.6365029e+01)	1.0839014e+05	2.9214982e+02	1.2895636e+00
9.03669e-05    	(4.2601442e+01 -5.3014528e-04 -3.6373169e+01)	1.0839268e+05	2.9214903e+02	1.2895973e+00
9.07719e-05    	(4.2611416e+01 -1.0543507e-03 -3.6382223e+01)	1.0839510e+05	2.9214815e+02	1.2896300e+00
9.11769e-05    	(4.2622826e+01 -1.5496220e-03 -3.6392419e+01)	1.0839736e+05	2.9214714e+02	1.2896613e+00
9.15819e-05    	(4.2636056e+01 -2.0125245e-03 -3.6404070e+01)	1.0839943e+05	2.9214598e+02	1.2896910e+00
9.19869e-05    	(4.2651526e+01 -2.4235139e-03 -3.6417532e+01)	1.0840124e+05	2.9214463e+02	1.2897185e+00
9.23919e-05    	(4.2669573e+01 -2.7779951e-03 -3.6433080e+01)	1.0840278e+05	2.9214307e+02	1.2897437e+00
9.27969e-05    	(4.2690449e+01 -3.0779389e-03 -3.6450910e+01)	1.0840400e+05	2.9214126e+02	1.2897661e+00
9.32019e-05    	(4.2714406e+01 -3.3259504e-03 -3.6471224e+01)	1.0840487e+05	2.9213919e+02	1.2897857e+00
9.36069e-05    	(4.2741600e+01 -3.5235781e-03 -3.6494156e+01)	1.0840539e+05	2.9213684e+02	1.2898022e+00
9.40119e-05    	(4.2772093e+01 -3.6711561e-03 -3.6519771e+01)	1.0840554e+05	2.9213420e+02	1.2898156e+00
9.44169e-05    	(4.2805852e+01 -3.7662639e-03 -3.6548065e+01)	1.0840533e+05	2.9213129e+02	1.2898259e+00
9.4822e-05     	(4.2842700e+01 -3.8315373e-03 -3.6578899e+01)	1.0840476e+05	2.9212810e+02	1.2898332e+00
9.5227e-05     	(4.2882336e+01 -3.8784228e-03 -3.6612041e+01)	1.0840388e+05	2.9212467e+02	1.2898378e+00
9.5632e-05     	(4.2924302e+01 -3.8983169e-03 -3.6647136e+01)	1.0840273e+05	2.9212104e+02	1.2898401e+00
9.6037e-05     	(4.2968078e+01 -3.8677353e-03 -3.6683764e+01)	1.0840138e+05	2.9211724e+02	1.2898406e+00
9.6442e-05     	(4.3013076e+01 -3.7918139e-03 -3.6721446e+01)	1.0839987e+05	2.9211334e+02	1.2898400e+00
9.68471e-05    	(4.3058583e+01 -3.6698121e-03 -3.6759596e+01)	1.0839831e+05	2.9210938e+02	1.2898387e+00
9.72521e-05    	(4.3103785e+01 -3.5143749e-03 -3.6797545e+01)	1.0839677e+05	2.9210544e+02	1.2898377e+00
9.76571e-05    	(4.3147760e+01 -3.3329076e-03 -3.6834526e+01)	1.0839536e+05	2.9210161e+02	1.2898379e+00
9.80621e-05    	(4.3189619e+01 -3.1379164e-03 -3.6869785e+01)	1.0839419e+05	2.9209796e+02	1.2898400e+00
9.84671e-05    	(4.3228451e+01 -2.9373374e-03 -3.6902552e+01)	1.0839335e+05	2.9209457e+02	1.2898450e+00
9.88722e-05    	(4.3263368e+01 -2.7043512e-03 -3.6932058e+01)	1.0839296e+05	2.9209151e+02	1.2898537e+00
9.92772e-05    	(4.3293574e+01 -2.4396898e-03 -3.6957625e+01)	1.0839310e+05	2.9208887e+02	1.2898670e+00
9.96822e-05    	(4.3318386e+01 -2.1615624e-03 -3.6978664e+01)	1.0839385e+05	2.9208671e+02	1.2898855e+00
0.000100087    	(4.3337224e+01 -1.8866535e-03 -3.6994635e+01)	1.0839529e+05	2.9208507e+02	1.2899098e+00
0.000100492    	(4.3349802e+01 -1.6052352e-03 -3.7005297e+01)	1.0839744e+05	2.9208398e+02	1.2899402e+00
0.000100897    	(4.3356022e+01 -1.3073896e-03 -3.7010598e+01)	1.0840032e+05	2.9208345e+02	1.2899768e+00
0.000101302    	(4.3355788e+01 -1.0300480e-03 -3.7010416e+01)	1.0840394e+05	2.9208350e+02	1.2900197e+00
0.000101707    	(4.3349119e+01 -7.7153582e-04 -3.7004777e+01)	1.0840829e+05	2.9208411e+02	1.2900688e+00
0.000102112    	(4.3336237e+01 -5.2549622e-04 -3.6993879e+01)	1.0841336e+05	2.9208527e+02	1.2901240e+00
0.000102517    	(4.3317641e+01 -2.8084619e-04 -3.6978142e+01)	1.0841908e+05	2.9208693e+02	1.2901848e+00
0.000102922    	(4.3293933e+01 -5.2282449e-05 -3.6958068e+01)	1.0842538e+05	2.9208905e+02	1.2902505e+00
0.000103327    	(4.3265944e+01 1.5066902e-04 -3.6934364e+01)	1.0843218e+05	2.9209154e+02	1.2903204e+00
0.000103732    	(4.3234522e+01 3.3183681e-04 -3.6907758e+01)	1.0843937e+05	2.9209434e+02	1.2903936e+00
0.000104137    	(4.3200517e+01 4.8588073e-04 -3.6878984e+01)	1.0844684e+05	2.9209735e+02	1.2904693e+00
0.000104542    	(4.3164866e+01 6.2378612e-04 -3.6848828e+01)	1.0845451e+05	2.9210052e+02	1.2905466e+00
0.000104947    	(4.3128473e+01 7.4687007e-04 -3.6818056e+01)	1.0846225e+05	2.9210374e+02	1.2906246e+00
0.000105352    	(4.3092290e+01 8.5943259e-04 -3.6787476e+01)	1.0846997e+05	2.9210694e+02	1.2907023e+00
0.000105757    	(4.3057217e+01 9.6222245e-04 -3.6757842e+01)	1.0847755e+05	2.9211004e+02	1.2907789e+00
0.000106163    	(4.3024072e+01 1.0583504e-03 -3.6729836e+01)	1.0848492e+05	2.9211297e+02	1.2908536e+00
0.000106568    	(4.2993646e+01 1.1485453e-03 -3.6704126e+01)	1.0849196e+05	2.9211565e+02	1.2909256e+00
0.000106973    	(4.2966627e+01 1.2386031e-03 -3.6681304e+01)	1.0849862e+05	2.9211804e+02	1.2909944e+00
0.000107378    	(4.2943535e+01 1.3208633e-03 -3.6661818e+01)	1.0850483e+05	2.9212008e+02	1.2910593e+00
0.000107783    	(4.2924782e+01 1.3907893e-03 -3.6646025e+01)	1.0851054e+05	2.9212173e+02	1.2911200e+00
0.000108188    	(4.2910699e+01 1.4632276e-03 -3.6634214e+01)	1.0851572e+05	2.9212298e+02	1.2911761e+00
0.000108593    	(4.2901387e+01 1.5423240e-03 -3.6626499e+01)	1.0852036e+05	2.9212381e+02	1.2912277e+00
0.000108998    	(4.2896889e+01 1.6224217e-03 -3.6622929e+01)	1.0852445e+05	2.9212421e+02	1.2912745e+00
0.000109403    	(4.2897049e+01 1.6987165e-03 -3.6623386e+01)	1.0852800e+05	2.9212420e+02	1.2913168e+00
0.000109808    	(4.2901575e+01 1.7673152e-03 -3.6627659e+01)	1.0853105e+05	2.9212381e+02	1.2913549e+00
0.000110213    	(4.2910144e+01 1.8536549e-03 -3.6635488e+01)	1.0853364e+05	2.9212305e+02	1.2913890e+00
0.000110618    	(4.2922210e+01 1.9293652e-03 -3.6646359e+01)	1.0853582e+05	2.9212199e+02	1.2914197e+00
0.000111023    	(4.2937151e+01 1.9615349e-03 -3.6659685e+01)	1.0853768e+05	2.9212068e+02	1.2914476e+00
0.000111428    	(4.2954420e+01 1.9696002e-03 -3.6675020e+01)	1.0853927e+05	2.9211916e+02	1.2914732e+00
0.000111833    	(4.2973582e+01 2.0117763e-03 -3.6692070e+01)	1.0854064e+05	2.9211747e+02	1.2914969e+00
0.000112238    	(4.2994016e+01 2.0568959e-03 -3.6710271e+01)	1.0854186e+05	2.9211566e+02	1.2915194e+00
0.000112643    	(4.3015209e+01 2.1007261e-03 -3.6729191e+01)	1.0854299e+05	2.9211379e+02	1.2915411e+00
0.000113048    	(4.3036615e+01 2.0859531e-03 -3.6748272e+01)	1.0854409e+05	2.9211189e+02	1.2915626e+00
0.000113453    	(4.3057891e+01 1.9931139e-03 -3.6767185e+01)	1.0854521e+05	2.9211001e+02	1.2915842e+00
0.000113858    	(4.3078794e+01 1.8853587e-03 -3.6785769e+01)	1.0854638e+05	2.9210816e+02	1.2916062e+00
0.000114263    	(4.3099088e+01 1.7963260e-03 -3.6803850e+01)	1.0854761e+05	2.9210637e+02	1.2916288e+00
0.000114668    	(4.3118524e+01 1.6950062e-03 -3.6821154e+01)	1.0854893e+05	2.9210464e+02	1.2916521e+00
0.000115073    	(4.3137079e+01 1.5866924e-03 -3.6837690e+01)	1.0855036e+05	2.9210300e+02	1.2916764e+00
0.000115478    	(4.3154688e+01 1.4292344e-03 -3.6853340e+01)	1.0855189e+05	2.9210143e+02	1.2917015e+00
0.000115883    	(4.3171429e+01 1.2033732e-03 -3.6868136e+01)	1.0855353e+05	2.9209995e+02	1.2917275e+00
0.000116288    	(4.3187675e+01 9.9651020e-04 -3.6882482e+01)	1.0855523e+05	2.9209851e+02	1.2917540e+00
0.000116693    	(4.3203647e+01 8.2624774e-04 -3.6896568e+01)	1.0855695e+05	2.9209710e+02	1.2917808e+00