# Region type : patch cOutlet
# Faces  :     1591
# Area   :     4.0504348e-05
# Time         	sum(phi)
0              	0.0000000e+00
4.84042e-07    	1.7327582e-08
8.88508e-07    	1.7002445e-08
1.29297e-06    	6.9500207e-08
1.69744e-06    	6.6328413e-08
2.10191e-06    	4.3641139e-07
2.50637e-06    	1.0460514e-06
2.91084e-06    	1.3446282e-06
3.3153e-06     	1.7458422e-06
3.71977e-06    	2.6458876e-06
4.12423e-06    	3.2492409e-06
4.5287e-06     	3.4115211e-06
4.93315e-06    	3.4953210e-06
5.33759e-06    	3.4355217e-06
5.74206e-06    	3.3670657e-06
6.14653e-06    	3.2863679e-06
6.55104e-06    	3.1460781e-06
6.95558e-06    	3.0149973e-06
7.36028e-06    	2.8664573e-06
7.76497e-06    	2.6863130e-06
8.16964e-06    	2.5228124e-06
8.57432e-06    	2.3962157e-06
8.979e-06      	2.2481160e-06
9.38367e-06    	2.1119876e-06
9.78834e-06    	2.0065268e-06
1.0193e-05     	1.8979339e-06
1.05977e-05    	1.8083418e-06
1.10023e-05    	1.7359283e-06
1.1407e-05     	1.6543255e-06
1.18117e-05    	1.5738658e-06
1.22164e-05    	1.5034104e-06
1.26212e-05    	1.4300475e-06
1.30259e-05    	1.3562156e-06
1.34308e-05    	1.2894111e-06
1.38357e-05    	1.2370478e-06
1.42406e-05    	1.1657495e-06
1.46455e-05    	1.0988146e-06
1.50504e-05    	1.0497757e-06
1.54554e-05    	1.0010547e-06
1.58603e-05    	9.3735976e-07
1.62652e-05    	9.0170240e-07
1.667e-05      	8.7211886e-07
1.70749e-05    	8.5967300e-07
1.74798e-05    	8.4624136e-07
1.78846e-05    	8.3940560e-07
1.82895e-05    	8.5488451e-07
1.86944e-05    	8.6833895e-07
1.90992e-05    	9.0773188e-07
1.9504e-05     	9.3615811e-07
1.99089e-05    	9.8675725e-07
2.03138e-05    	1.0337606e-06
2.07188e-05    	1.0741901e-06
2.11238e-05    	1.0971087e-06
2.15287e-05    	1.1363847e-06
2.19337e-05    	1.1689853e-06
2.23387e-05    	1.1765435e-06
2.27436e-05    	1.2045505e-06
2.31486e-05    	1.2256081e-06
2.35535e-05    	1.2729002e-06
2.39585e-05    	1.3187606e-06
2.43634e-05    	1.3687555e-06
2.47684e-05    	1.4131389e-06
2.51733e-05    	1.4509836e-06
2.55783e-05    	1.5050772e-06
2.59832e-05    	1.5665691e-06
2.63881e-05    	1.6446919e-06
2.6793e-05     	1.7157564e-06
2.71979e-05    	1.7891013e-06
2.76029e-05    	1.8725950e-06
2.80079e-05    	1.9518710e-06
2.84129e-05    	2.0237434e-06
2.88179e-05    	2.0874733e-06
2.92229e-05    	2.1485185e-06
2.96279e-05    	2.2107372e-06
3.0033e-05     	2.2587796e-06
3.0438e-05     	2.2805326e-06
3.0843e-05     	2.3080235e-06
3.1248e-05     	2.3265447e-06
3.1653e-05     	2.3450858e-06
3.20581e-05    	2.3500989e-06
3.24631e-05    	2.3761016e-06
3.28682e-05    	2.3778998e-06
3.32733e-05    	2.3747327e-06
3.36783e-05    	2.3777169e-06
3.40834e-05    	2.3707661e-06
3.44885e-05    	2.3764696e-06
3.48935e-05    	2.3730754e-06
3.52986e-05    	2.3703424e-06
3.57037e-05    	2.3612795e-06
3.61088e-05    	2.3650017e-06
3.65139e-05    	2.3629967e-06
3.6919e-05     	2.3526694e-06
3.73241e-05    	2.3633657e-06
3.77292e-05    	2.3508360e-06
3.81343e-05    	2.3385389e-06
3.85394e-05    	2.3241645e-06
3.89445e-05    	2.3106410e-06
3.93496e-05    	2.3029495e-06
3.97547e-05    	2.2760258e-06
4.01598e-05    	2.2706582e-06
4.05649e-05    	2.2490281e-06
4.097e-05      	2.2367205e-06
4.13751e-05    	2.2082077e-06
4.17802e-05    	2.1974125e-06
4.21853e-05    	2.1864474e-06
4.25904e-05    	2.1754443e-06
4.29955e-05    	2.1666704e-06
4.34006e-05    	2.1547627e-06
4.38057e-05    	2.1527581e-06
4.42108e-05    	2.1509854e-06
4.46159e-05    	2.1556105e-06
4.5021e-05     	2.1705992e-06
4.54261e-05    	2.1808845e-06
4.58312e-05    	2.1910964e-06
4.62363e-05    	2.2099181e-06
4.66415e-05    	2.2290362e-06
4.70466e-05    	2.2388168e-06
4.74517e-05    	2.2700884e-06
4.78568e-05    	2.2842653e-06
4.82619e-05    	2.3178001e-06
4.8667e-05     	2.3398564e-06
4.90721e-05    	2.3595983e-06
4.94772e-05    	2.3890424e-06
4.98823e-05    	2.4036484e-06
5.02874e-05    	2.4301262e-06
5.06925e-05    	2.4509866e-06
5.10977e-05    	2.4645505e-06
5.15028e-05    	2.4918505e-06
5.19079e-05    	2.5019232e-06
5.2313e-05     	2.5244337e-06
5.27181e-05    	2.5349803e-06
5.31232e-05    	2.5523997e-06
5.35284e-05    	2.5566693e-06
5.39335e-05    	2.5726617e-06
5.43386e-05    	2.5917185e-06
5.47437e-05    	2.6137751e-06
5.51488e-05    	2.6379931e-06
5.55539e-05    	2.6687272e-06
5.59591e-05    	2.7052121e-06
5.63642e-05    	2.7403234e-06
5.67693e-05    	2.7828539e-06
5.71744e-05    	2.8432834e-06
5.75795e-05    	2.8991231e-06
5.79846e-05    	2.9520280e-06
5.83898e-05    	3.0136435e-06
5.87949e-05    	3.0807531e-06
5.92e-05       	3.1425496e-06
5.96051e-05    	3.2084758e-06
6.00102e-05    	3.2708227e-06
6.04153e-05    	3.3266367e-06
6.08204e-05    	3.3810622e-06
6.12256e-05    	3.4291749e-06
6.16307e-05    	3.4818019e-06
6.20358e-05    	3.5360098e-06
6.24409e-05    	3.5748010e-06
6.2846e-05     	3.6179494e-06
6.32511e-05    	3.6577300e-06
6.36563e-05    	3.6954250e-06
6.40614e-05    	3.7312890e-06
6.44665e-05    	3.7818364e-06
6.48716e-05    	3.8373735e-06
6.52767e-05    	3.8782701e-06
6.56819e-05    	3.9374278e-06
6.6087e-05     	3.9987627e-06
6.64921e-05    	4.0529260e-06
6.68972e-05    	4.1154199e-06
6.73024e-05    	4.1862655e-06
6.77075e-05    	4.2472983e-06
6.81126e-05    	4.3114606e-06
6.85178e-05    	4.3812141e-06
6.89229e-05    	4.4524847e-06
6.9328e-05     	4.5191361e-06
6.97332e-05    	4.5915956e-06
7.01383e-05    	4.6594668e-06
7.05434e-05    	4.7230348e-06
7.09486e-05    	4.7972551e-06
7.13537e-05    	4.8545258e-06
7.17588e-05    	4.9316000e-06
7.2164e-05     	4.9859867e-06
7.25691e-05    	5.0436184e-06
7.29742e-05    	5.1050990e-06
7.33794e-05    	5.1638079e-06
7.37845e-05    	5.2317695e-06
7.41897e-05    	5.2814396e-06
7.45948e-05    	5.3413693e-06
7.5e-05        	5.4017246e-06
7.54051e-05    	5.4624529e-06
7.58103e-05    	5.5226533e-06
7.62154e-05    	5.5936874e-06
7.66206e-05    	5.6553959e-06
7.70257e-05    	5.7110312e-06
7.74309e-05    	5.7713943e-06
7.7836e-05     	5.8402134e-06
7.82412e-05    	5.8889670e-06
7.86463e-05    	5.9456202e-06
7.90515e-05    	5.9995478e-06
7.94566e-05    	6.0506069e-06
7.98618e-05    	6.0942779e-06
8.02669e-05    	6.1292833e-06
8.0672e-05     	6.1720120e-06
8.10772e-05    	6.2096571e-06
8.14823e-05    	6.2366511e-06
8.18874e-05    	6.2577624e-06
8.22926e-05    	6.2882127e-06
8.26977e-05    	6.3018720e-06
8.31028e-05    	6.3353131e-06
8.3508e-05     	6.3548516e-06
8.39131e-05    	6.3747504e-06
8.43182e-05    	6.4114136e-06
8.47234e-05    	6.4383502e-06
8.51285e-05    	6.4825712e-06
8.55336e-05    	6.5277406e-06
8.59388e-05    	6.5922954e-06
8.63439e-05    	6.6649262e-06
8.6749e-05     	6.7572223e-06
8.71542e-05    	6.8535921e-06
8.75593e-05    	6.9641612e-06
8.79644e-05    	7.1092845e-06
8.83696e-05    	7.2522956e-06
8.87747e-05    	7.4085830e-06
8.91798e-05    	7.5676900e-06
8.9585e-05     	7.7379276e-06
8.99901e-05    	7.9161861e-06
9.03952e-05    	8.1031046e-06
9.08004e-05    	8.2740730e-06
9.12055e-05    	8.4477836e-06
9.16106e-05    	8.6270992e-06
9.20158e-05    	8.7905359e-06
9.24209e-05    	8.9550514e-06
9.2826e-05     	9.1068957e-06
9.32312e-05    	9.2457563e-06
9.36363e-05    	9.3692363e-06
9.40414e-05    	9.4815516e-06
9.44466e-05    	9.5909225e-06
9.48517e-05    	9.6726174e-06
9.52568e-05    	9.7508589e-06
9.5662e-05     	9.8264979e-06
9.60671e-05    	9.8724124e-06
9.64722e-05    	9.9161990e-06
9.68774e-05    	9.9682211e-06
9.72825e-05    	9.9948595e-06
9.76877e-05    	1.0017009e-05
9.80928e-05    	1.0035978e-05
9.8498e-05     	1.0063039e-05
9.89031e-05    	1.0063307e-05
9.93083e-05    	1.0078190e-05
9.97134e-05    	1.0090377e-05
0.000100119    	1.0089090e-05
0.000100524    	1.0097074e-05
0.000100929    	1.0105839e-05
0.000101334    	1.0111992e-05
0.000101739    	1.0110755e-05
0.000102144    	1.0116561e-05
0.000102549    	1.0112339e-05
0.000102955    	1.0102334e-05
0.00010336     	1.0110320e-05
0.000103765    	1.0093910e-05
0.00010417     	1.0102045e-05
0.000104575    	1.0106574e-05
0.00010498     	1.0118627e-05
0.000105385    	1.0146126e-05
0.000105791    	1.0172098e-05
0.000106196    	1.0208528e-05
0.000106601    	1.0246058e-05
0.000107006    	1.0312558e-05
0.000107411    	1.0376888e-05
0.000107816    	1.0455993e-05
0.000108222    	1.0559085e-05
0.000108627    	1.0661982e-05
0.000109032    	1.0782855e-05
0.000109437    	1.0897584e-05
0.000109842    	1.1038880e-05
0.000110247    	1.1172664e-05
0.000110652    	1.1326046e-05
0.000111058    	1.1471344e-05
0.000111463    	1.1626127e-05
0.000111868    	1.1768229e-05
0.000112273    	1.1925780e-05
0.000112678    	1.2078533e-05
0.000113083    	1.2213780e-05
0.000113488    	1.2354281e-05
0.000113894    	1.2479903e-05
0.000114299    	1.2609687e-05
0.000114704    	1.2721502e-05
0.000115109    	1.2818727e-05
0.000115514    	1.2908404e-05
0.000115919    	1.2986359e-05
0.000116325    	1.3058725e-05
0.00011673     	1.3106768e-05
0.000117135    	1.3159101e-05
0.00011754     	1.3196621e-05
0.000117945    	1.3222738e-05
0.00011835     	1.3248539e-05
0.000118755    	1.3260774e-05
0.000119161    	1.3272175e-05
0.000119566    	1.3280932e-05
0.000119971    	1.3276329e-05
0.000120376    	1.3282000e-05
0.000120781    	1.3276983e-05
0.000121186    	1.3269814e-05
0.000121591    	1.3266241e-05
0.000121997    	1.3264130e-05
0.000122402    	1.3252558e-05
0.000122807    	1.3253280e-05
0.000123212    	1.3262549e-05
0.000123617    	1.3262480e-05
0.000124022    	1.3266773e-05
0.000124428    	1.3260096e-05
0.000124833    	1.3248775e-05
0.000125238    	1.3257456e-05
0.000125643    	1.3251456e-05
0.000126048    	1.3241559e-05
0.000126453    	1.3246522e-05
0.000126858    	1.3240686e-05
0.000127264    	1.3230020e-05
0.000127669    	1.3220421e-05
0.000128074    	1.3215265e-05
0.000128479    	1.3200491e-05
0.000128884    	1.3201344e-05
0.000129289    	1.3195120e-05
0.000129695    	1.3194762e-05
0.0001301      	1.3192143e-05
0.000130505    	1.3208599e-05
0.00013091     	1.3227748e-05
0.000131315    	1.3245732e-05
0.00013172     	1.3285633e-05
0.000132125    	1.3334039e-05
0.000132531    	1.3387192e-05
0.000132936    	1.3452411e-05
0.000133341    	1.3533217e-05
0.000133746    	1.3627113e-05
0.000134151    	1.3734227e-05
0.000134556    	1.3846115e-05
0.000134961    	1.3974617e-05
0.000135367    	1.4112376e-05
0.000135772    	1.4248390e-05
0.000136177    	1.4394935e-05
0.000136582    	1.4542854e-05
0.000136987    	1.4695823e-05
0.000137392    	1.4840873e-05
0.000137798    	1.4979319e-05
0.000138203    	1.5123291e-05
0.000138608    	1.5256400e-05
0.000139013    	1.5380671e-05
0.000139418    	1.5502691e-05
0.000139823    	1.5619709e-05
0.000140228    	1.5725735e-05
0.000140634    	1.5818376e-05
0.000141039    	1.5916564e-05
0.000141444    	1.5996172e-05
0.000141849    	1.6077911e-05
0.000142254    	1.6162746e-05
0.000142659    	1.6233104e-05
0.000143065    	1.6310740e-05
0.00014347     	1.6377054e-05
0.000143875    	1.6448788e-05
0.00014428     	1.6535806e-05
0.000144685    	1.6621411e-05
0.00014509     	1.6712479e-05
0.000145495    	1.6817351e-05
0.000145901    	1.6935718e-05
0.000146306    	1.7061011e-05
0.000146711    	1.7197458e-05
0.000147116    	1.7353695e-05
0.000147521    	1.7524911e-05
0.000147926    	1.7705990e-05
0.000148331    	1.7894839e-05
0.000148737    	1.8120181e-05
0.000149142    	1.8342268e-05
0.000149547    	1.8583789e-05
0.000149952    	1.8833948e-05
0.000150357    	1.9102143e-05
0.000150762    	1.9370543e-05
0.000151168    	1.9649830e-05
0.000151573    	1.9934028e-05
0.000151978    	2.0221872e-05
0.000152383    	2.0513120e-05
0.000152788    	2.0799373e-05
0.000153193    	2.1080183e-05
0.000153598    	2.1359002e-05
0.000154004    	2.1633094e-05
0.000154409    	2.1880233e-05
0.000154814    	2.2134636e-05
0.000155219    	2.2364879e-05
0.000155624    	2.2580071e-05
0.000156029    	2.2789648e-05
0.000156434    	2.2983033e-05
0.00015684     	2.3171947e-05
0.000157245    	2.3341899e-05
0.00015765     	2.3510151e-05
0.000158055    	2.3663608e-05
0.00015846     	2.3821141e-05
0.000158865    	2.3965146e-05
0.00015927     	2.4112415e-05
0.000159675    	2.4269821e-05
0.000160081    	2.4422104e-05
0.000160486    	2.4583076e-05
0.000160891    	2.4743564e-05
0.000161296    	2.4926236e-05
0.000161701    	2.5117922e-05
0.000162106    	2.5311780e-05
0.000162511    	2.5523741e-05
0.000162917    	2.5741474e-05
0.000163322    	2.5971403e-05
0.000163727    	2.6218466e-05
0.000164132    	2.6477075e-05
0.000164537    	2.6743940e-05
0.000164942    	2.7019079e-05
0.000165347    	2.7308444e-05
0.000165752    	2.7589989e-05
0.000166158    	2.7897017e-05
0.000166563    	2.8183674e-05
0.000166968    	2.8487696e-05
0.000167373    	2.8777702e-05
0.000167778    	2.9072617e-05
0.000168183    	2.9366230e-05
0.000168588    	2.9655004e-05
0.000168993    	2.9932801e-05
0.000169399    	3.0215588e-05
0.000169804    	3.0488063e-05
0.000170209    	3.0748574e-05
0.000170614    	3.1014175e-05
0.000171019    	3.1266741e-05
0.000171424    	3.1512174e-05
0.000171829    	3.1757457e-05
0.000172235    	3.1998040e-05
0.00017264     	3.2237507e-05
0.000173045    	3.2480553e-05
0.00017345     	3.2714334e-05
0.000173855    	3.2958559e-05
0.00017426     	3.3196114e-05
0.000174665    	3.3435563e-05
0.00017507     	3.3688797e-05
0.000175476    	3.3930698e-05
0.000175881    	3.4175664e-05
0.000176286    	3.4426722e-05
0.000176691    	3.4666148e-05
0.000177096    	3.4912337e-05
0.000177501    	3.5154583e-05
0.000177906    	3.5393639e-05
0.000178312    	3.5633190e-05
0.000178717    	3.5869173e-05
0.000179122    	3.6091596e-05
0.000179527    	3.6320330e-05
0.000179932    	3.6525754e-05
0.000180337    	3.6746657e-05
0.000180742    	3.6960224e-05
0.000181147    	3.7167542e-05
0.000181553    	3.7372160e-05
0.000181958    	3.7583468e-05
0.000182363    	3.7799789e-05
0.000182768    	3.8007317e-05
0.000183173    	3.8244502e-05
0.000183578    	3.8471173e-05
0.000183983    	3.8706945e-05
0.000184388    	3.8953424e-05
0.000184794    	3.9208676e-05
0.000185199    	3.9479134e-05
0.000185604    	3.9752618e-05
0.000186009    	4.0038799e-05
0.000186414    	4.0330433e-05
0.000186819    	4.0632258e-05
0.000187224    	4.0929482e-05
0.000187629    	4.1235396e-05
0.000188035    	4.1542503e-05
0.00018844     	4.1851767e-05
0.000188845    	4.2162301e-05
0.00018925     	4.2451583e-05
0.000189655    	4.2757245e-05
0.00019006     	4.3028457e-05
0.000190465    	4.3302940e-05
0.000190871    	4.3577919e-05
0.000191276    	4.3836730e-05
0.000191681    	4.4099995e-05
0.000192086    	4.4352655e-05
0.000192491    	4.4612004e-05
0.000192896    	4.4858586e-05
0.000193301    	4.5115135e-05
0.000193706    	4.5371885e-05
0.000194112    	4.5633505e-05
0.000194517    	4.5897625e-05
0.000194922    	4.6160970e-05
0.000195327    	4.6446478e-05
0.000195732    	4.6719761e-05
0.000196137    	4.7022215e-05
0.000196542    	4.7320242e-05
0.000196948    	4.7628253e-05
0.000197353    	4.7943644e-05
0.000197758    	4.8262065e-05
0.000198163    	4.8590479e-05
0.000198568    	4.8917421e-05
0.000198973    	4.9249885e-05
0.000199378    	4.9588368e-05
0.000199783    	4.9921437e-05
0.000200189    	5.0263359e-05
0.000200594    	5.0603826e-05
0.000200999    	5.0931177e-05
0.000201404    	5.1264333e-05
0.000201809    	5.1599031e-05
0.000202214    	5.1916792e-05
0.000202619    	5.2248890e-05
0.000203024    	5.2574427e-05
0.00020343     	5.2894539e-05
0.000203835    	5.3217705e-05
0.00020424     	5.3545063e-05
0.000204645    	5.3852507e-05
0.00020505     	5.4178127e-05
0.000205455    	5.4500954e-05
0.00020586     	5.4818255e-05
0.000206266    	5.5143128e-05
0.000206671    	5.5460563e-05
0.000207076    	5.5780608e-05
0.000207481    	5.6105778e-05
0.000207886    	5.6431146e-05
0.000208291    	5.6752347e-05
0.000208696    	5.7067654e-05
0.000209101    	5.7385771e-05
0.000209506    	5.7699123e-05
0.000209912    	5.8007338e-05
0.000210317    	5.8312328e-05
0.000210722    	5.8614432e-05
0.000211127    	5.8905433e-05
0.000211532    	5.9194810e-05
0.000211937    	5.9476767e-05
0.000212342    	5.9759905e-05
0.000212748    	6.0029087e-05
0.000213153    	6.0299990e-05
0.000213558    	6.0571834e-05
0.000213963    	6.0841925e-05
0.000214368    	6.1113443e-05
0.000214773    	6.1380370e-05
0.000215178    	6.1660604e-05
0.000215583    	6.1938979e-05
0.000215989    	6.2220149e-05
0.000216394    	6.2520472e-05
0.000216799    	6.2803510e-05
0.000217204    	6.3103558e-05
0.000217609    	6.3418927e-05
0.000218014    	6.3728220e-05
0.000218419    	6.4048986e-05
0.000218824    	6.4371162e-05
0.00021923     	6.4690650e-05
0.000219635    	6.5006075e-05
0.00022004     	6.5326129e-05
0.000220445    	6.5643933e-05
0.00022085     	6.5950410e-05
0.000221255    	6.6258406e-05
0.00022166     	6.6542921e-05
0.000222066    	6.6830587e-05
0.000222471    	6.7103050e-05
0.000222876    	6.7357233e-05
0.000223281    	6.7610777e-05
0.000223686    	6.7856662e-05
0.000224091    	6.8091772e-05
0.000224496    	6.8320229e-05
0.000224901    	6.8550224e-05
0.000225307    	6.8781232e-05
0.000225712    	6.8996946e-05
0.000226117    	6.9220820e-05
0.000226522    	6.9460127e-05
0.000226927    	6.9682943e-05
0.000227332    	6.9930018e-05
0.000227737    	7.0172592e-05
0.000228143    	7.0419726e-05
0.000228548    	7.0692454e-05
0.000228953    	7.0961988e-05
0.000229358    	7.1241743e-05
0.000229763    	7.1534302e-05
0.000230168    	7.1832482e-05
0.000230573    	7.2126078e-05
0.000230978    	7.2441776e-05
0.000231383    	7.2748287e-05
0.000231789    	7.3063010e-05
0.000232194    	7.3364925e-05
0.000232599    	7.3670724e-05
0.000233004    	7.3981722e-05
0.000233409    	7.4277851e-05
0.000233814    	7.4582290e-05
0.000234219    	7.4863879e-05
0.000234624    	7.5150911e-05
0.000235029    	7.5424261e-05
0.000235435    	7.5701455e-05
0.00023584     	7.5978142e-05
0.000236245    	7.6239892e-05
0.00023665     	7.6511324e-05
0.000237055    	7.6770197e-05
0.00023746     	7.7016633e-05
0.000237865    	7.7288958e-05
0.00023827     	7.7552566e-05
0.000238675    	7.7806967e-05
0.000239081    	7.8076530e-05
0.000239486    	7.8341394e-05
0.000239891    	7.8612535e-05
0.000240296    	7.8883033e-05
0.000240701    	7.9168612e-05
0.000241106    	7.9439485e-05
0.000241511    	7.9718640e-05
0.000241916    	8.0002505e-05
0.000242321    	8.0289877e-05
0.000242727    	8.0571885e-05
0.000243132    	8.0863783e-05
0.000243537    	8.1156877e-05
0.000243942    	8.1433596e-05
0.000244347    	8.1731838e-05
0.000244752    	8.2015920e-05
0.000245157    	8.2302598e-05
0.000245562    	8.2593269e-05
0.000245967    	8.2890061e-05
0.000246373    	8.3182802e-05
0.000246778    	8.3467423e-05
0.000247183    	8.3786866e-05
0.000247588    	8.4076397e-05
0.000247993    	8.4376553e-05
0.000248398    	8.4691230e-05
0.000248803    	8.5000223e-05
0.000249208    	8.5314281e-05
0.000249613    	8.5644171e-05
0.000250019    	8.5966318e-05
0.000250424    	8.6299127e-05
0.000250829    	8.6631150e-05
0.000251234    	8.6969441e-05
0.000251639    	8.7322525e-05
0.000252044    	8.7654819e-05
0.000252449    	8.8006990e-05
0.000252854    	8.8360943e-05
0.000253259    	8.8693072e-05
0.000253665    	8.9049304e-05
0.00025407     	8.9403230e-05
0.000254475    	8.9741143e-05
0.00025488     	9.0097115e-05
0.000255285    	9.0448972e-05
0.00025569     	9.0786598e-05
0.000256095    	9.1131851e-05
0.0002565      	9.1472339e-05
0.000256905    	9.1805383e-05
0.000257311    	9.2141376e-05
0.000257716    	9.2471492e-05
0.000258121    	9.2801544e-05
0.000258526    	9.3120498e-05
0.000258931    	9.3438753e-05
0.000259336    	9.3752481e-05
0.000259741    	9.4065802e-05
0.000260146    	9.4379296e-05
0.000260551    	9.4677100e-05
0.000260957    	9.4972450e-05
0.000261362    	9.5265479e-05
0.000261767    	9.5544863e-05
0.000262172    	9.5824600e-05
0.000262577    	9.6101119e-05
0.000262982    	9.6377612e-05
0.000263387    	9.6640204e-05
0.000263792    	9.6906914e-05
0.000264197    	9.7165283e-05
0.000264603    	9.7420484e-05
0.000265008    	9.7679449e-05
0.000265413    	9.7939078e-05
0.000265818    	9.8187521e-05
0.000266223    	9.8451017e-05
0.000266628    	9.8715648e-05
0.000267033    	9.8978145e-05
0.000267438    	9.9252179e-05
0.000267843    	9.9533605e-05
0.000268249    	9.9814369e-05
0.000268654    	1.0009337e-04
0.000269059    	1.0039148e-04
0.000269464    	1.0069278e-04
0.000269869    	1.0099721e-04
0.000270274    	1.0130879e-04
0.000270679    	1.0162984e-04
0.000271084    	1.0195341e-04
0.000271489    	1.0227953e-04
0.000271895    	1.0262737e-04
0.0002723      	1.0295410e-04
0.000272705    	1.0329325e-04
0.00027311     	1.0363843e-04
0.000273515    	1.0396735e-04
0.00027392     	1.0430734e-04
0.000274325    	1.0464553e-04
0.00027473     	1.0497386e-04
0.000275135    	1.0530822e-04
0.000275541    	1.0563778e-04
0.000275946    	1.0595014e-04
0.000276351    	1.0626978e-04
0.000276756    	1.0657087e-04
0.000277161    	1.0687863e-04
0.000277566    	1.0717226e-04
0.000277971    	1.0746976e-04
0.000278376    	1.0776294e-04
0.000278781    	1.0804089e-04
0.000279187    	1.0832826e-04
0.000279592    	1.0859842e-04
0.000279997    	1.0888206e-04
0.000280402    	1.0916484e-04
0.000280807    	1.0942874e-04
0.000281212    	1.0970811e-04
0.000281617    	1.0997369e-04
0.000282022    	1.1024902e-04
0.000282427    	1.1051526e-04
0.000282833    	1.1078239e-04
0.000283238    	1.1106443e-04
0.000283643    	1.1132374e-04
0.000284048    	1.1159474e-04
0.000284453    	1.1186858e-04
0.000284858    	1.1213757e-04
0.000285263    	1.1242368e-04
0.000285668    	1.1269474e-04
0.000286073    	1.1296919e-04
0.000286479    	1.1324923e-04
0.000286884    	1.1353335e-04
0.000287289    	1.1381330e-04
0.000287694    	1.1410019e-04
0.000288099    	1.1438869e-04
0.000288504    	1.1467789e-04
0.000288909    	1.1496439e-04
0.000289314    	1.1526691e-04
0.000289719    	1.1555805e-04
0.000290125    	1.1585225e-04
0.00029053     	1.1616168e-04
0.000290935    	1.1647214e-04
0.00029134     	1.1677646e-04
0.000291745    	1.1709593e-04
0.00029215     	1.1740406e-04
0.000292555    	1.1772484e-04
0.00029296     	1.1804633e-04
0.000293365    	1.1836180e-04
0.000293771    	1.1869223e-04
0.000294176    	1.1901585e-04
0.000294581    	1.1934092e-04
0.000294986    	1.1967437e-04
0.000295391    	1.2000658e-04
0.000295796    	1.2033884e-04
0.000296201    	1.2066311e-04
0.000296606    	1.2100339e-04
0.000297011    	1.2132660e-04
0.000297417    	1.2166247e-04
0.000297822    	1.2199080e-04
0.000298227    	1.2230950e-04
0.000298632    	1.2263816e-04
0.000299037    	1.2296372e-04
0.000299442    	1.2328365e-04
0.000299847    	1.2359983e-04
0.000300253    	1.2392373e-04
0.000300658    	1.2423078e-04
0.000301063    	1.2454181e-04
0.000301468    	1.2485785e-04
0.000301873    	1.2515357e-04
0.000302278    	1.2545479e-04
0.000302683    	1.2576130e-04
0.000303089    	1.2605759e-04
0.000303494    	1.2634862e-04
0.000303899    	1.2665300e-04
0.000304304    	1.2693716e-04
0.000304709    	1.2721829e-04
0.000305114    	1.2750161e-04
0.000305519    	1.2778563e-04
0.000305924    	1.2806630e-04
0.00030633     	1.2833592e-04
0.000306735    	1.2861230e-04
0.00030714     	1.2888094e-04
0.000307545    	1.2915160e-04
0.00030795     	1.2943596e-04
0.000308355    	1.2969986e-04
0.00030876     	1.2997265e-04
0.000309166    	1.3023585e-04
0.000309571    	1.3050636e-04
0.000309976    	1.3077353e-04
0.000310381    	1.3105327e-04
0.000310786    	1.3133748e-04
0.000311191    	1.3161880e-04
0.000311596    	1.3190111e-04
0.000312001    	1.3219170e-04
0.000312407    	1.3249286e-04
0.000312812    	1.3279717e-04
0.000313217    	1.3310286e-04
0.000313622    	1.3341583e-04
0.000314027    	1.3374375e-04
0.000314432    	1.3407408e-04
0.000314837    	1.3439835e-04
0.000315243    	1.3473606e-04
0.000315648    	1.3507287e-04
0.000316053    	1.3541620e-04
0.000316458    	1.3575040e-04
0.000316863    	1.3608739e-04
0.000317268    	1.3642775e-04
0.000317673    	1.3676273e-04
0.000318078    	1.3708906e-04
0.000318484    	1.3742056e-04
0.000318889    	1.3774243e-04
0.000319294    	1.3805363e-04
0.000319699    	1.3835894e-04
0.000320104    	1.3865740e-04
0.000320509    	1.3894702e-04
0.000320914    	1.3922793e-04
0.00032132     	1.3949967e-04
0.000321725    	1.3976412e-04
0.00032213     	1.4000994e-04
0.000322535    	1.4025494e-04
0.00032294     	1.4049049e-04
0.000323345    	1.4071506e-04
0.00032375     	1.4093709e-04
0.000324155    	1.4115537e-04
0.000324561    	1.4136506e-04
0.000324966    	1.4156802e-04
0.000325371    	1.4178516e-04
0.000325776    	1.4198923e-04
0.000326181    	1.4219486e-04
0.000326586    	1.4241029e-04
0.000326991    	1.4262628e-04
0.000327397    	1.4284599e-04
0.000327802    	1.4307260e-04
0.000328207    	1.4330338e-04
0.000328612    	1.4354864e-04
0.000329017    	1.4379799e-04
0.000329422    	1.4404873e-04
0.000329827    	1.4431854e-04
0.000330232    	1.4459428e-04
0.000330638    	1.4486801e-04
0.000331043    	1.4515349e-04
0.000331448    	1.4544576e-04
0.000331853    	1.4574319e-04
0.000332258    	1.4604602e-04
0.000332663    	1.4634989e-04
0.000333068    	1.4665510e-04
0.000333474    	1.4696823e-04
0.000333879    	1.4727403e-04
0.000334284    	1.4758174e-04
0.000334689    	1.4788947e-04
0.000335094    	1.4818890e-04
0.000335499    	1.4848381e-04
0.000335904    	1.4878108e-04
0.000336309    	1.4906562e-04
0.000336715    	1.4934534e-04
0.00033712     	1.4961819e-04
0.000337525    	1.4988634e-04
0.00033793     	1.5014282e-04
0.000338335    	1.5039074e-04
0.00033874     	1.5063397e-04
0.000339145    	1.5087182e-04
0.000339551    	1.5109477e-04
0.000339956    	1.5131437e-04
0.000340361    	1.5153122e-04
0.000340766    	1.5174346e-04
0.000341171    	1.5194659e-04
0.000341576    	1.5215108e-04
0.000341981    	1.5235645e-04
0.000342387    	1.5255057e-04
0.000342792    	1.5274301e-04
0.000343197    	1.5294238e-04
0.000343602    	1.5314413e-04
0.000344007    	1.5334758e-04
0.000344412    	1.5354898e-04
0.000344817    	1.5375833e-04
0.000345222    	1.5398362e-04
0.000345628    	1.5420890e-04
0.000346033    	1.5442942e-04
0.000346438    	1.5466030e-04
0.000346843    	1.5489818e-04
0.000347248    	1.5514261e-04
0.000347653    	1.5538536e-04
0.000348058    	1.5562586e-04
0.000348464    	1.5586703e-04
0.000348869    	1.5611167e-04
0.000349274    	1.5636702e-04
0.000349679    	1.5661742e-04
0.000350084    	1.5686079e-04
0.000350489    	1.5710518e-04
0.000350894    	1.5735897e-04
0.000351299    	1.5761487e-04
0.000351705    	1.5785531e-04
0.00035211     	1.5808474e-04
0.000352515    	1.5831050e-04
0.00035292     	1.5854059e-04
0.000353325    	1.5877361e-04
0.00035373     	1.5899764e-04
0.000354135    	1.5921062e-04
0.000354541    	1.5942226e-04
0.000354946    	1.5963583e-04
0.000355351    	1.5984690e-04
0.000355756    	1.6004406e-04
0.000356161    	1.6023517e-04
0.000356566    	1.6042777e-04
0.000356971    	1.6062514e-04
0.000357376    	1.6082355e-04
0.000357782    	1.6101058e-04
0.000358187    	1.6119551e-04
0.000358592    	1.6138885e-04
0.000358997    	1.6158257e-04
0.000359402    	1.6177511e-04
0.000359807    	1.6196565e-04
0.000360212    	1.6215781e-04
0.000360618    	1.6235575e-04
0.000361023    	1.6255740e-04
0.000361428    	1.6275764e-04
0.000361833    	1.6295967e-04
0.000362238    	1.6316282e-04
0.000362643    	1.6336667e-04
0.000363048    	1.6356917e-04
0.000363453    	1.6377092e-04
0.000363859    	1.6397399e-04
0.000364264    	1.6417548e-04
0.000364669    	1.6437330e-04
0.000365074    	1.6456935e-04
0.000365479    	1.6477003e-04
0.000365884    	1.6496807e-04
0.000366289    	1.6515978e-04
0.000366695    	1.6535023e-04
0.0003671      	1.6554064e-04
0.000367505    	1.6573230e-04
0.00036791     	1.6592206e-04
0.000368315    	1.6610841e-04
0.00036872     	1.6629702e-04
0.000369125    	1.6648921e-04
0.00036953     	1.6668242e-04
0.000369936    	1.6687227e-04
0.000370341    	1.6706510e-04
0.000370746    	1.6726529e-04
0.000371151    	1.6746542e-04
0.000371556    	1.6766760e-04
0.000371961    	1.6787598e-04
0.000372366    	1.6808766e-04
0.000372772    	1.6829669e-04
0.000373177    	1.6850812e-04
0.000373582    	1.6872299e-04
0.000373987    	1.6893936e-04
0.000374392    	1.6915669e-04
0.000374797    	1.6936877e-04
0.000375202    	1.6958090e-04
0.000375607    	1.6979195e-04
0.000376013    	1.7000075e-04
0.000376418    	1.7020764e-04
0.000376823    	1.7040554e-04
0.000377228    	1.7059715e-04
0.000377633    	1.7078571e-04
0.000378038    	1.7096881e-04
0.000378443    	1.7114631e-04
0.000378849    	1.7131480e-04
0.000379254    	1.7147810e-04
0.000379659    	1.7163690e-04
0.000380064    	1.7179103e-04
0.000380469    	1.7194092e-04
0.000380874    	1.7208653e-04
0.000381279    	1.7222903e-04
0.000381685    	1.7236956e-04
0.00038209     	1.7251048e-04
0.000382495    	1.7265081e-04
0.0003829      	1.7279090e-04
0.000383305    	1.7293358e-04
0.00038371     	1.7308025e-04
0.000384115    	1.7322662e-04
0.00038452     	1.7337360e-04
0.000384926    	1.7352283e-04
0.000385331    	1.7367600e-04
0.000385736    	1.7383133e-04
0.000386141    	1.7398787e-04
0.000386546    	1.7414497e-04
0.000386951    	1.7429926e-04
0.000387356    	1.7445481e-04
0.000387762    	1.7460935e-04
0.000388167    	1.7476329e-04
0.000388572    	1.7491270e-04
0.000388977    	1.7506032e-04
0.000389382    	1.7520569e-04
0.000389787    	1.7534534e-04
0.000390192    	1.7548002e-04
0.000390597    	1.7561262e-04
0.000391003    	1.7574318e-04
0.000391408    	1.7586923e-04
0.000391813    	1.7599235e-04
0.000392218    	1.7611586e-04
0.000392623    	1.7623780e-04
0.000393028    	1.7635833e-04
0.000393433    	1.7648242e-04
0.000393839    	1.7660742e-04
0.000394244    	1.7673404e-04
0.000394649    	1.7686340e-04
0.000395054    	1.7699645e-04
0.000395459    	1.7713379e-04
0.000395864    	1.7727562e-04
0.000396269    	1.7741984e-04
0.000396674    	1.7756601e-04
0.00039708     	1.7771539e-04
0.000397485    	1.7786563e-04
0.00039789     	1.7801473e-04
0.000398295    	1.7816347e-04
0.0003987      	1.7831106e-04
0.000399105    	1.7845266e-04
0.00039951     	1.7859194e-04
0.000399916    	1.7872613e-04
0.000400321    	1.7885459e-04
0.000400726    	1.7897597e-04
0.000401131    	1.7908877e-04
0.000401536    	1.7919442e-04
0.000401941    	1.7929249e-04
0.000402346    	1.7938192e-04
0.000402751    	1.7946285e-04
0.000403157    	1.7953557e-04