# Region type : patch cOutlet
# Faces  :     1172
# Area   :     4.4928320e-05
# Time         	average(U)	average(p)	average(T)
0              	(0.0000000e+00 0.0000000e+00 0.0000000e+00)	1.0000000e+05	2.9300000e+02
5.62517e-07    	(-1.3823850e-02 -1.3815085e+01 8.2649497e-02)	1.1117903e+05	2.9183858e+02
1.00486e-06    	(-5.4599615e-02 -1.5023527e+01 5.6071696e-02)	1.1189484e+05	2.9110067e+02
1.44172e-06    	(-3.3681288e-02 -1.4616462e+01 6.2425666e-02)	1.1169070e+05	2.9056585e+02
1.87835e-06    	(6.1917550e-03 -1.3962100e+01 8.4351179e-02)	1.1135636e+05	2.9031347e+02
2.31864e-06    	(9.6491684e-03 -1.3577142e+01 8.6505796e-02)	1.1125793e+05	2.9038422e+02
2.77704e-06    	(-1.7519328e-02 -1.3670195e+01 7.7663932e-02)	1.1151191e+05	2.9066063e+02
3.26432e-06    	(-4.6164826e-02 -1.4067863e+01 6.5560684e-02)	1.1198805e+05	2.9099927e+02
3.76282e-06    	(-5.9188193e-02 -1.4388764e+01 5.2314916e-02)	1.1240687e+05	2.9123480e+02
4.26106e-06    	(-6.2804651e-02 -1.4395137e+01 4.1349188e-02)	1.1263615e+05	2.9132485e+02
4.76173e-06    	(-5.8944569e-02 -1.4089597e+01 2.9320178e-02)	1.1267059e+05	2.9130082e+02
5.26405e-06    	(-4.7344517e-02 -1.3604518e+01 1.3843656e-02)	1.1258301e+05	2.9121163e+02
5.76286e-06    	(-2.7906162e-02 -1.3060466e+01 -2.0118936e-03)	1.1244082e+05	2.9110656e+02
6.26046e-06    	(-2.9541313e-03 -1.2500982e+01 -1.8305914e-02)	1.1227345e+05	2.9099752e+02
6.76084e-06    	(2.3926139e-02 -1.1924707e+01 -3.4616549e-02)	1.1208446e+05	2.9086688e+02
7.26547e-06    	(4.8322677e-02 -1.1346693e+01 -4.9592608e-02)	1.1188290e+05	2.9074062e+02
7.76906e-06    	(7.1551956e-02 -1.0802034e+01 -6.0911311e-02)	1.1168480e+05	2.9061648e+02
8.26759e-06    	(9.3661825e-02 -1.0321813e+01 -6.6352456e-02)	1.1150695e+05	2.9051115e+02
8.76244e-06    	(1.1240187e-01 -9.9125082e+00 -6.5993170e-02)	1.1135311e+05	2.9042392e+02
9.25495e-06    	(1.2597284e-01 -9.5662773e+00 -6.0408268e-02)	1.1121965e+05	2.9035088e+02
9.74585e-06    	(1.3424888e-01 -9.2749246e+00 -5.0215326e-02)	1.1110498e+05	2.9029088e+02
1.02355e-05    	(1.3634817e-01 -9.0313904e+00 -3.6793035e-02)	1.1100886e+05	2.9024336e+02
1.07232e-05    	(1.3332970e-01 -8.8287352e+00 -2.1155633e-02)	1.1093055e+05	2.9020767e+02
1.12085e-05    	(1.2575596e-01 -8.6603061e+00 -4.3653372e-03)	1.1086872e+05	2.9018225e+02
1.16911e-05    	(1.1465049e-01 -8.5204142e+00 1.2366631e-02)	1.1082109e+05	2.9016527e+02
1.21704e-05    	(1.0155225e-01 -8.4056020e+00 2.7842568e-02)	1.1078603e+05	2.9015606e+02
1.26454e-05    	(8.7590574e-02 -8.3150496e+00 4.1124711e-02)	1.1076332e+05	2.9015479e+02
1.31158e-05    	(7.3285236e-02 -8.2494965e+00 5.1755855e-02)	1.1075409e+05	2.9016214e+02
1.35844e-05    	(5.8063216e-02 -8.2092054e+00 5.8898825e-02)	1.1075952e+05	2.9017860e+02
1.4053e-05     	(4.2694904e-02 -8.1933882e+00 6.1481252e-02)	1.1077909e+05	2.9020364e+02
1.4523e-05     	(2.8547977e-02 -8.1994370e+00 5.8178765e-02)	1.1081073e+05	2.9023626e+02
1.49951e-05    	(1.7093823e-02 -8.2248969e+00 4.9012854e-02)	1.1085251e+05	2.9027528e+02
1.54694e-05    	(8.7193900e-03 -8.2666644e+00 3.5444096e-02)	1.1090241e+05	2.9031921e+02
1.59461e-05    	(3.4927943e-03 -8.3220393e+00 1.9908681e-02)	1.1095869e+05	2.9036683e+02
1.6426e-05     	(5.4834146e-04 -8.3899702e+00 4.6085319e-03)	1.1102053e+05	2.9041730e+02
1.69088e-05    	(-1.3766976e-03 -8.4702269e+00 -9.4932258e-03)	1.1108756e+05	2.9047006e+02
1.73938e-05    	(-2.4124117e-03 -8.5611957e+00 -2.3096495e-02)	1.1115874e+05	2.9052383e+02
1.78806e-05    	(-2.2843429e-03 -8.6583555e+00 -3.7340224e-02)	1.1123112e+05	2.9057202e+02
1.83691e-05    	(-9.7242746e-04 -8.7544481e+00 -5.1697910e-02)	1.1130188e+05	2.9061839e+02
1.8859e-05     	(1.8059156e-03 -8.8391784e+00 -6.5886150e-02)	1.1136545e+05	2.9065688e+02
1.93503e-05    	(5.8429221e-03 -8.9035045e+00 -7.8173008e-02)	1.1141750e+05	2.9068733e+02
1.98425e-05    	(1.0157838e-02 -8.9403452e+00 -8.6984255e-02)	1.1145493e+05	2.9070662e+02
2.03343e-05    	(1.4635515e-02 -8.9452995e+00 -9.0049046e-02)	1.1147564e+05	2.9071275e+02
2.08255e-05    	(1.8448056e-02 -8.9182361e+00 -8.6895064e-02)	1.1147976e+05	2.9070817e+02
2.13163e-05    	(2.1501170e-02 -8.8626836e+00 -7.8906301e-02)	1.1146868e+05	2.9069444e+02
2.18069e-05    	(2.3380668e-02 -8.7830514e+00 -6.7988795e-02)	1.1144413e+05	2.9067295e+02
2.22975e-05    	(2.4212671e-02 -8.6828870e+00 -5.5161243e-02)	1.1140816e+05	2.9064491e+02
2.27878e-05    	(2.3883931e-02 -8.5651909e+00 -4.0060360e-02)	1.1136281e+05	2.9061144e+02
2.32776e-05    	(2.2042602e-02 -8.4330982e+00 -2.2441095e-02)	1.1131000e+05	2.9057375e+02
2.3767e-05     	(1.8723889e-02 -8.2905199e+00 -2.8577748e-03)	1.1125174e+05	2.9053348e+02
2.42553e-05    	(1.4341731e-02 -8.1427751e+00 1.7731269e-02)	1.1119058e+05	2.9049264e+02
2.47418e-05    	(9.1370338e-03 -7.9956547e+00 3.8495877e-02)	1.1112924e+05	2.9045326e+02
2.52258e-05    	(3.3903466e-03 -7.8549851e+00 5.8655274e-02)	1.1107049e+05	2.9041733e+02
2.57078e-05    	(-2.4408679e-03 -7.7256220e+00 7.7624701e-02)	1.1101680e+05	2.9038626e+02
2.61882e-05    	(-7.9600649e-03 -7.6110847e+00 9.4926224e-02)	1.1097013e+05	2.9036108e+02
2.66679e-05    	(-1.2791916e-02 -7.5134340e+00 1.1016763e-01)	1.1093206e+05	2.9034245e+02
2.7148e-05     	(-1.6499642e-02 -7.4335079e+00 1.2275589e-01)	1.1090345e+05	2.9033052e+02
2.76289e-05    	(-1.8885333e-02 -7.3712315e+00 1.3177342e-01)	1.1088448e+05	2.9032509e+02
2.81103e-05    	(-1.9819065e-02 -7.3256275e+00 1.3658865e-01)	1.1087473e+05	2.9032549e+02
2.85919e-05    	(-1.9294697e-02 -7.2946201e+00 1.3710950e-01)	1.1087324e+05	2.9033060e+02
2.90744e-05    	(-1.7356252e-02 -7.2753825e+00 1.3351320e-01)	1.1087855e+05	2.9033919e+02
2.95579e-05    	(-1.4030630e-02 -7.2643453e+00 1.2630190e-01)	1.1088878e+05	2.9034983e+02
3.00424e-05    	(-9.3079732e-03 -7.2576307e+00 1.1602251e-01)	1.1090176e+05	2.9036093e+02
3.05275e-05    	(-3.3740693e-03 -7.2509972e+00 1.0328028e-01)	1.1091506e+05	2.9037083e+02
3.1013e-05     	(3.6681014e-03 -7.2401471e+00 8.8955334e-02)	1.1092615e+05	2.9037793e+02
3.1499e-05     	(1.1626791e-02 -7.2210365e+00 7.3983798e-02)	1.1093250e+05	2.9038061e+02
3.19853e-05    	(2.0389492e-02 -7.1899696e+00 5.9024491e-02)	1.1093163e+05	2.9037730e+02
3.24722e-05    	(2.9655410e-02 -7.1432481e+00 4.4323869e-02)	1.1092102e+05	2.9036642e+02
3.29594e-05    	(3.9257334e-02 -7.0774579e+00 2.9989397e-02)	1.1089866e+05	2.9034673e+02
3.34468e-05    	(4.9321689e-02 -6.9892892e+00 1.6127666e-02)	1.1086319e+05	2.9031726e+02
3.39344e-05    	(5.9804205e-02 -6.8756439e+00 3.3672419e-03)	1.1081380e+05	2.9027740e+02
3.44215e-05    	(7.0165277e-02 -6.7357044e+00 -7.5146582e-03)	1.1075028e+05	2.9022718e+02
3.49076e-05    	(8.0156240e-02 -6.5694922e+00 -1.6275643e-02)	1.1067253e+05	2.9016677e+02
3.53922e-05    	(8.9506273e-02 -6.3783994e+00 -2.2684211e-02)	1.1058099e+05	2.9009687e+02
3.58746e-05    	(9.7785866e-02 -6.1648720e+00 -2.6676923e-02)	1.1047680e+05	2.9002922e+02
3.63544e-05    	(1.0491337e-01 -5.9305688e+00 -2.8648911e-02)	1.1036067e+05	2.8996105e+02
3.68325e-05    	(1.1061488e-01 -5.6767724e+00 -2.8909068e-02)	1.1023346e+05	2.8988599e+02
3.73099e-05    	(1.1463275e-01 -5.4045204e+00 -2.7369425e-02)	1.1009636e+05	2.8981343e+02
3.77878e-05    	(1.1827089e-01 -5.1140632e+00 -2.5280520e-02)	1.0994930e+05	2.8972872e+02
3.82684e-05    	(1.2060539e-01 -4.8050714e+00 -2.2996250e-02)	1.0979149e+05	2.8965370e+02
3.8753e-05     	(1.2055335e-01 -4.4767424e+00 -2.1224022e-02)	1.0962514e+05	2.8958903e+02
3.9241e-05     	(1.1911447e-01 -4.1281986e+00 -1.8699361e-02)	1.0944873e+05	2.8953063e+02
3.97269e-05    	(1.1682685e-01 -3.7638187e+00 -1.6704517e-02)	1.0926692e+05	2.8948942e+02
4.02107e-05    	(1.1132715e-01 -3.3865234e+00 -1.6442400e-02)	1.0908138e+05	2.8941984e+02
4.0693e-05     	(1.0213331e-01 -2.9993204e+00 -2.0140240e-02)	1.0889145e+05	2.8937697e+02
4.11743e-05    	(9.2422571e-02 -2.6042854e+00 -2.7827654e-02)	1.0870007e+05	2.8938442e+02
4.16553e-05    	(7.9533937e-02 -2.2017301e+00 -3.9156661e-02)	1.0851108e+05	2.8941304e+02
4.2136e-05     	(6.8432603e-02 -1.7958580e+00 -5.4162173e-02)	1.0832151e+05	2.8945940e+02
4.26165e-05    	(5.4754170e-02 -1.3880723e+00 -7.1817554e-02)	1.0813904e+05	2.8959160e+02
4.3097e-05     	(3.8893751e-02 -9.8030037e-01 -9.3326829e-02)	1.0795873e+05	2.8973040e+02
4.35777e-05    	(2.3876785e-02 -5.7883931e-01 -1.2063325e-01)	1.0777904e+05	2.8984823e+02
4.40589e-05    	(2.0937838e-03 -1.9034162e-01 -1.4577482e-01)	1.0760250e+05	2.9005036e+02
4.45408e-05    	(-2.0789244e-02 1.8222769e-01 -1.7230817e-01)	1.0742873e+05	2.9020271e+02
4.50233e-05    	(-4.1579900e-02 5.3749807e-01 -1.9238714e-01)	1.0725819e+05	2.9041160e+02
4.5506e-05     	(-5.9385244e-02 8.7597057e-01 -2.0968803e-01)	1.0708948e+05	2.9063565e+02
4.59884e-05    	(-7.3798360e-02 1.1995149e+00 -2.2180416e-01)	1.0693279e+05	2.9086153e+02
4.64704e-05    	(-9.1529463e-02 1.5136254e+00 -2.2991906e-01)	1.0678298e+05	2.9112056e+02
4.6952e-05     	(-1.0662812e-01 1.8209253e+00 -2.2766470e-01)	1.0664815e+05	2.9140901e+02
4.74331e-05    	(-1.2815078e-01 2.1294089e+00 -2.1168999e-01)	1.0653346e+05	2.9173353e+02
4.79138e-05    	(-1.4971350e-01 2.4444083e+00 -1.8181169e-01)	1.0643248e+05	2.9199563e+02
4.83941e-05    	(-1.6212490e-01 2.7639742e+00 -1.4083887e-01)	1.0634729e+05	2.9224894e+02
4.88745e-05    	(-1.6080562e-01 3.0864800e+00 -9.3422299e-02)	1.0627540e+05	2.9241319e+02
4.93557e-05    	(-1.5281497e-01 3.4091615e+00 -4.1765105e-02)	1.0621697e+05	2.9256411e+02
4.98383e-05    	(-1.3943091e-01 3.7319771e+00 1.3988658e-02)	1.0616672e+05	2.9265348e+02
5.0322e-05     	(-1.1839157e-01 4.0539748e+00 6.7460971e-02)	1.0612448e+05	2.9274942e+02
5.08068e-05    	(-9.0840914e-02 4.3791114e+00 1.1592763e-01)	1.0608073e+05	2.9279597e+02
5.12922e-05    	(-6.0610077e-02 4.7068853e+00 1.6128551e-01)	1.0603392e+05	2.9283241e+02
5.17774e-05    	(-3.0930672e-02 5.0353317e+00 2.0110433e-01)	1.0598233e+05	2.9285657e+02
5.22621e-05    	(-2.4580523e-03 5.3573245e+00 2.3646216e-01)	1.0592757e+05	2.9287706e+02
5.27458e-05    	(2.5623074e-02 5.6670904e+00 2.6754183e-01)	1.0587198e+05	2.9289199e+02
5.32284e-05    	(5.3153072e-02 5.9612431e+00 2.9243929e-01)	1.0581729e+05	2.9290813e+02
5.37098e-05    	(8.0121640e-02 6.2382573e+00 3.0755321e-01)	1.0576487e+05	2.9291359e+02
5.41902e-05    	(1.0542972e-01 6.4978555e+00 3.1066990e-01)	1.0571518e+05	2.9291541e+02
5.46696e-05    	(1.2766813e-01 6.7403957e+00 3.0159185e-01)	1.0566891e+05	2.9291912e+02
5.51482e-05    	(1.4647978e-01 6.9662622e+00 2.8103715e-01)	1.0562664e+05	2.9292173e+02
5.56261e-05    	(1.6152825e-01 7.1752190e+00 2.5048244e-01)	1.0558873e+05	2.9292430e+02
5.61034e-05    	(1.7323686e-01 7.3667010e+00 2.1114586e-01)	1.0555562e+05	2.9292687e+02
5.65802e-05    	(1.8173322e-01 7.5391021e+00 1.6341403e-01)	1.0552782e+05	2.9292947e+02
5.70565e-05    	(1.8709652e-01 7.6912221e+00 1.0772311e-01)	1.0550539e+05	2.9293206e+02
5.75316e-05    	(1.8870437e-01 7.8229265e+00 4.5792565e-02)	1.0548775e+05	2.9293454e+02
5.80056e-05    	(1.8608284e-01 7.9352252e+00 -1.9678741e-02)	1.0547388e+05	2.9293682e+02
5.84786e-05    	(1.7914078e-01 8.0292419e+00 -8.5050948e-02)	1.0546296e+05	2.9293796e+02
5.89507e-05    	(1.6808899e-01 8.1068413e+00 -1.4732798e-01)	1.0545384e+05	2.9293883e+02
5.94222e-05    	(1.5334717e-01 8.1689631e+00 -2.0499980e-01)	1.0544658e+05	2.9294060e+02
5.98929e-05    	(1.3548519e-01 8.2158019e+00 -2.5777936e-01)	1.0544147e+05	2.9294238e+02
6.03626e-05    	(1.1555678e-01 8.2467266e+00 -3.0649683e-01)	1.0543940e+05	2.9294428e+02
6.08312e-05    	(9.4611107e-02 8.2600518e+00 -3.5110471e-01)	1.0544187e+05	2.9294567e+02
6.1299e-05     	(7.3477224e-02 8.2546529e+00 -3.9073713e-01)	1.0544973e+05	2.9294778e+02
6.17664e-05    	(5.3022855e-02 8.2298202e+00 -4.2406220e-01)	1.0546375e+05	2.9295006e+02
6.22342e-05    	(3.4023638e-02 8.1857505e+00 -4.4981133e-01)	1.0548397e+05	2.9295235e+02
6.27035e-05    	(1.6623036e-02 8.1225682e+00 -4.6769161e-01)	1.0551044e+05	2.9295462e+02
6.31751e-05    	(5.9252322e-04 8.0392393e+00 -4.7789928e-01)	1.0554389e+05	2.9295750e+02
6.36489e-05    	(-1.4154903e-02 7.9336892e+00 -4.8072605e-01)	1.0558556e+05	2.9296052e+02
6.41229e-05    	(-2.7532932e-02 7.8028061e+00 -4.7646929e-01)	1.0563700e+05	2.9296309e+02
6.45953e-05    	(-3.9625218e-02 7.6432758e+00 -4.6490956e-01)	1.0569981e+05	2.9296586e+02
6.50652e-05    	(-5.0545714e-02 7.4525844e+00 -4.4650570e-01)	1.0577519e+05	2.9296879e+02
6.55326e-05    	(-6.0175050e-02 7.2296775e+00 -4.2200692e-01)	1.0586364e+05	2.9297125e+02
6.5997e-05     	(-6.7922325e-02 6.9753272e+00 -3.9188040e-01)	1.0596520e+05	2.9297439e+02
6.6459e-05     	(-7.3029362e-02 6.6913744e+00 -3.5624402e-01)	1.0607956e+05	2.9297729e+02
6.69191e-05    	(-7.5401297e-02 6.3786953e+00 -3.1484265e-01)	1.0620677e+05	2.9298037e+02
6.73783e-05    	(-7.4938587e-02 6.0364693e+00 -2.6738748e-01)	1.0634793e+05	2.9298364e+02
6.78374e-05    	(-7.2076617e-02 5.6623271e+00 -2.1376538e-01)	1.0650489e+05	2.9298782e+02
6.82972e-05    	(-6.6891513e-02 5.2521751e+00 -1.5450880e-01)	1.0668032e+05	2.9299246e+02
6.87583e-05    	(-5.8953894e-02 4.8014821e+00 -9.0636801e-02)	1.0687725e+05	2.9299852e+02
6.92211e-05    	(-4.8326145e-02 4.3061176e+00 -2.4150060e-02)	1.0709853e+05	2.9300570e+02
6.96856e-05    	(-3.5580347e-02 3.7641296e+00 4.1560242e-02)	1.0734658e+05	2.9301540e+02
7.01513e-05    	(-2.2448303e-02 3.1781849e+00 1.0327608e-01)	1.0762298e+05	2.9303225e+02
7.06181e-05    	(-1.1740678e-02 2.5575498e+00 1.5536821e-01)	1.0792915e+05	2.9305941e+02
7.10858e-05    	(-5.0471138e-03 1.9154591e+00 1.9343902e-01)	1.0826346e+05	2.9310848e+02
7.15539e-05    	(-2.3030290e-03 1.2604681e+00 2.1842072e-01)	1.0861827e+05	2.9319953e+02
7.20226e-05    	(-4.8954901e-03 5.9935201e-01 2.2766292e-01)	1.0898542e+05	2.9334614e+02
7.24918e-05    	(-1.2777064e-02 -6.0008139e-02 2.2002993e-01)	1.0936021e+05	2.9357232e+02
7.29617e-05    	(-2.4475588e-02 -7.2401632e-01 2.0029566e-01)	1.0973965e+05	2.9391490e+02
7.34318e-05    	(-3.9959049e-02 -1.3965892e+00 1.6876472e-01)	1.1011311e+05	2.9423626e+02
7.39023e-05    	(-5.5649593e-02 -2.0705715e+00 1.3332537e-01)	1.1047796e+05	2.9449612e+02
7.43731e-05    	(-7.0561237e-02 -2.7302778e+00 9.4938292e-02)	1.1083309e+05	2.9473815e+02
7.48438e-05    	(-8.4749337e-02 -3.3626755e+00 5.3320081e-02)	1.1117636e+05	2.9495519e+02
7.53144e-05    	(-9.8150421e-02 -3.9549808e+00 1.1124043e-02)	1.1150327e+05	2.9514813e+02
7.57848e-05    	(-1.1090349e-01 -4.5006049e+00 -2.9110115e-02)	1.1181218e+05	2.9532408e+02
7.62549e-05    	(-1.2095389e-01 -4.9976352e+00 -6.2925652e-02)	1.1210163e+05	2.9548680e+02
7.67244e-05    	(-1.2743571e-01 -5.4463717e+00 -9.0605394e-02)	1.1237054e+05	2.9563021e+02
7.71934e-05    	(-1.3092870e-01 -5.8492017e+00 -1.1171056e-01)	1.1262064e+05	2.9576109e+02
7.76619e-05    	(-1.3175066e-01 -6.2085766e+00 -1.2494675e-01)	1.1285144e+05	2.9587083e+02
7.81299e-05    	(-1.2943279e-01 -6.5274250e+00 -1.2990013e-01)	1.1306527e+05	2.9597782e+02
7.8597e-05     	(-1.2263137e-01 -6.8084806e+00 -1.2700442e-01)	1.1326002e+05	2.9605738e+02
7.9063e-05     	(-1.1605024e-01 -7.0559857e+00 -1.1661919e-01)	1.1343974e+05	2.9614047e+02
7.95277e-05    	(-1.0630057e-01 -7.2717715e+00 -1.0299205e-01)	1.1360301e+05	2.9621474e+02
7.99912e-05    	(-9.7839373e-02 -7.4599899e+00 -8.3629733e-02)	1.1375237e+05	2.9629051e+02
8.04544e-05    	(-8.7327424e-02 -7.6230637e+00 -6.5014151e-02)	1.1389079e+05	2.9634225e+02
8.09181e-05    	(-7.6783347e-02 -7.7594556e+00 -4.2420092e-02)	1.1401199e+05	2.9638192e+02
8.13829e-05    	(-6.6442616e-02 -7.8726098e+00 -2.0913442e-02)	1.1412180e+05	2.9641857e+02
8.1849e-05     	(-5.5846942e-02 -7.9622909e+00 1.6640559e-03)	1.1421690e+05	2.9643199e+02
8.23163e-05    	(-4.6275762e-02 -8.0298022e+00 2.3249261e-02)	1.1429953e+05	2.9644713e+02
8.27849e-05    	(-3.9414144e-02 -8.0755480e+00 4.2158645e-02)	1.1436822e+05	2.9644755e+02
8.32549e-05    	(-3.0521358e-02 -8.1023458e+00 6.0843017e-02)	1.1442560e+05	2.9643883e+02
8.37264e-05    	(-2.6248557e-02 -8.1110013e+00 7.5320053e-02)	1.1447087e+05	2.9643043e+02
8.41995e-05    	(-2.0942614e-02 -8.1043192e+00 8.7757690e-02)	1.1450690e+05	2.9640958e+02
8.46742e-05    	(-1.7362889e-02 -8.0839965e+00 9.8014531e-02)	1.1453365e+05	2.9639325e+02
8.51507e-05    	(-1.5372645e-02 -8.0524615e+00 1.0350963e-01)	1.1455326e+05	2.9635711e+02
8.56287e-05    	(-1.3527186e-02 -8.0110487e+00 1.0802012e-01)	1.1456445e+05	2.9632840e+02
8.61082e-05    	(-1.4290623e-02 -7.9625824e+00 1.0728710e-01)	1.1457188e+05	2.9629718e+02
8.65881e-05    	(-1.6771145e-02 -7.9054732e+00 1.0427571e-01)	1.1457000e+05	2.9623573e+02
8.70678e-05    	(-1.9960467e-02 -7.8444906e+00 9.9402892e-02)	1.1456697e+05	2.9621420e+02
8.75474e-05    	(-2.4803521e-02 -7.7779851e+00 9.0373585e-02)	1.1455730e+05	2.9615440e+02
8.80273e-05    	(-3.0243924e-02 -7.7085669e+00 8.1334038e-02)	1.1454469e+05	2.9612757e+02
8.85079e-05    	(-3.6113859e-02 -7.6373693e+00 6.9306600e-02)	1.1453038e+05	2.9607486e+02
8.8989e-05     	(-4.2624677e-02 -7.5640645e+00 5.6643879e-02)	1.1451205e+05	2.9603162e+02
8.94696e-05    	(-4.8198976e-02 -7.4909699e+00 4.3548474e-02)	1.1449413e+05	2.9598911e+02
8.99499e-05    	(-5.3784246e-02 -7.4171344e+00 3.0693481e-02)	1.1447252e+05	2.9594357e+02
9.04303e-05    	(-5.7002034e-02 -7.3437752e+00 1.9497512e-02)	1.1445230e+05	2.9589987e+02
9.09111e-05    	(-5.9419996e-02 -7.2693204e+00 7.6567985e-03)	1.1442754e+05	2.9584138e+02
9.13927e-05    	(-5.9056956e-02 -7.1951964e+00 -3.7209600e-04)	1.1440504e+05	2.9580603e+02
9.18752e-05    	(-5.6936532e-02 -7.1184944e+00 -8.3956667e-03)	1.1437698e+05	2.9575176e+02
9.23592e-05    	(-5.1702641e-02 -7.0412871e+00 -1.3240008e-02)	1.1435070e+05	2.9571433e+02
9.28443e-05    	(-4.3956681e-02 -6.9601014e+00 -1.6508922e-02)	1.1431822e+05	2.9565471e+02
9.3329e-05     	(-3.3205806e-02 -6.8765084e+00 -1.7305274e-02)	1.1428568e+05	2.9560547e+02
9.38132e-05    	(-2.0161776e-02 -6.7882026e+00 -1.6772004e-02)	1.1424759e+05	2.9554691e+02
9.42958e-05    	(-5.6761100e-03 -6.6954012e+00 -1.4965604e-02)	1.1420735e+05	2.9549554e+02
9.47756e-05    	(1.0042961e-02 -6.5967518e+00 -1.1438942e-02)	1.1416151e+05	2.9542891e+02
9.52521e-05    	(2.6296712e-02 -6.4928941e+00 -8.7359542e-03)	1.1411304e+05	2.9537140e+02
9.5725e-05     	(4.1814910e-02 -6.3828051e+00 -4.7593792e-03)	1.1405887e+05	2.9530064e+02
9.61947e-05    	(5.7361486e-02 -6.2667305e+00 -2.1315321e-03)	1.1400111e+05	2.9523844e+02
9.66624e-05    	(7.1174014e-02 -6.1440289e+00 7.4307792e-04)	1.1393793e+05	2.9516287e+02
9.71304e-05    	(8.3638627e-02 -6.0133791e+00 3.2958123e-03)	1.1386920e+05	2.9509148e+02
9.75995e-05    	(9.4959915e-02 -5.8742338e+00 4.7317154e-03)	1.1379504e+05	2.9501359e+02
9.80709e-05    	(1.0368275e-01 -5.7242588e+00 6.1853183e-03)	1.1371285e+05	2.9493117e+02
9.85453e-05    	(1.1010000e-01 -5.5629560e+00 6.3344996e-03)	1.1362333e+05	2.9484395e+02
9.90222e-05    	(1.1312477e-01 -5.3897482e+00 4.9695519e-03)	1.1352564e+05	2.9475025e+02
9.94992e-05    	(1.1284140e-01 -5.2050431e+00 2.1476169e-03)	1.1342003e+05	2.9465291e+02
9.99748e-05    	(1.0823047e-01 -5.0100891e+00 -2.5732264e-03)	1.1330752e+05	2.9455217e+02
0.00010045     	(9.9120230e-02 -4.8053327e+00 -9.1501778e-03)	1.1318743e+05	2.9444516e+02
0.000100924    	(8.5132308e-02 -4.5923371e+00 -1.7097615e-02)	1.1306128e+05	2.9433568e+02
0.0001014      	(6.6268310e-02 -4.3723700e+00 -2.6675156e-02)	1.1292842e+05	2.9421906e+02
0.000101876    	(4.2270306e-02 -4.1483360e+00 -3.7153023e-02)	1.1279236e+05	2.9410340e+02
0.000102354    	(1.4843124e-02 -3.9213577e+00 -4.8216264e-02)	1.1265221e+05	2.9398312e+02
0.000102834    	(-1.4451267e-02 -3.6950802e+00 -5.8657826e-02)	1.1251022e+05	2.9386842e+02
0.000103314    	(-4.6002704e-02 -3.4733192e+00 -6.7287679e-02)	1.1236920e+05	2.9375328e+02
0.000103793    	(-7.6281286e-02 -3.2593551e+00 -7.4814791e-02)	1.1223063e+05	2.9364329e+02
0.000104271    	(-1.0505362e-01 -3.0565032e+00 -7.9675415e-02)	1.1209673e+05	2.9353733e+02
0.000104747    	(-1.3100466e-01 -2.8678407e+00 -8.1375395e-02)	1.1196997e+05	2.9343983e+02
0.000105221    	(-1.5185476e-01 -2.6950531e+00 -8.0176373e-02)	1.1185137e+05	2.9334989e+02
0.000105694    	(-1.6711032e-01 -2.5403742e+00 -7.5315069e-02)	1.1174301e+05	2.9327114e+02
0.000106166    	(-1.7721467e-01 -2.4049127e+00 -6.8135949e-02)	1.1164545e+05	2.9319916e+02
0.000106638    	(-1.8127522e-01 -2.2898573e+00 -5.8407759e-02)	1.1155936e+05	2.9313917e+02
0.00010711     	(-1.7971354e-01 -2.1952675e+00 -4.6129341e-02)	1.1148473e+05	2.9309092e+02
0.000107583    	(-1.7288931e-01 -2.1205518e+00 -3.1850982e-02)	1.1142201e+05	2.9305155e+02
0.000108056    	(-1.6162648e-01 -2.0645728e+00 -1.6314880e-02)	1.1137026e+05	2.9301944e+02
0.000108531    	(-1.4637086e-01 -2.0258915e+00 -2.2686312e-04)	1.1132888e+05	2.9299497e+02
0.000109006    	(-1.2794738e-01 -2.0026931e+00 1.5876296e-02)	1.1129679e+05	2.9297606e+02
0.000109483    	(-1.0755654e-01 -1.9933094e+00 3.1746312e-02)	1.1127307e+05	2.9296213e+02
0.000109962    	(-8.5767559e-02 -1.9963204e+00 4.6971371e-02)	1.1125678e+05	2.9295231e+02
0.000110442    	(-6.3289834e-02 -2.0101427e+00 6.0882689e-02)	1.1124666e+05	2.9294600e+02
0.000110925    	(-4.0767875e-02 -2.0338492e+00 7.3293289e-02)	1.1124228e+05	2.9294263e+02
0.000111408    	(-1.8734601e-02 -2.0662780e+00 8.3811435e-02)	1.1124315e+05	2.9294276e+02
0.000111891    	(2.5702740e-03 -2.1070400e+00 9.2338717e-02)	1.1124870e+05	2.9294598e+02
0.000112371    	(2.2987447e-02 -2.1553059e+00 9.8694093e-02)	1.1125875e+05	2.9295155e+02
0.000112848    	(4.2259319e-02 -2.2106571e+00 1.0290206e-01)	1.1127294e+05	2.9295944e+02
0.000113324    	(5.9934043e-02 -2.2720611e+00 1.0467852e-01)	1.1129101e+05	2.9296992e+02
0.0001138      	(7.5198535e-02 -2.3379825e+00 1.0357976e-01)	1.1131232e+05	2.9298095e+02
0.000114276    	(8.7088929e-02 -2.4063560e+00 9.9479255e-02)	1.1133600e+05	2.9299235e+02
0.000114752    	(9.4752874e-02 -2.4746992e+00 9.2314446e-02)	1.1136089e+05	2.9300364e+02
0.000115229    	(9.7673377e-02 -2.5400510e+00 8.2151076e-02)	1.1138559e+05	2.9301302e+02
0.000115707    	(9.5684718e-02 -2.5992405e+00 6.9512608e-02)	1.1140856e+05	2.9302046e+02
0.000116183    	(8.8766809e-02 -2.6490805e+00 5.5193126e-02)	1.1142795e+05	2.9302422e+02
0.000116658    	(7.7913222e-02 -2.6870945e+00 3.9905156e-02)	1.1144223e+05	2.9302315e+02
0.000117133    	(6.4053815e-02 -2.7113221e+00 2.4526119e-02)	1.1145035e+05	2.9301771e+02
0.000117609    	(4.8214254e-02 -2.7202633e+00 9.7193017e-03)	1.1145120e+05	2.9300631e+02
0.000118086    	(3.1241873e-02 -2.7132741e+00 -4.0201422e-03)	1.1144394e+05	2.9298865e+02
0.000118563    	(1.3830874e-02 -2.6901978e+00 -1.6603599e-02)	1.1142812e+05	2.9296527e+02
0.000119038    	(-3.6888749e-03 -2.6507321e+00 -2.7783238e-02)	1.1140327e+05	2.9293585e+02
0.000119509    	(-2.0849629e-02 -2.5947605e+00 -3.7282218e-02)	1.1136941e+05	2.9290145e+02
0.00011998     	(-3.7017795e-02 -2.5230770e+00 -4.4766128e-02)	1.1132691e+05	2.9286210e+02
0.00012045     	(-5.1995979e-02 -2.4367622e+00 -5.0354892e-02)	1.1127579e+05	2.9281678e+02
0.00012092     	(-6.5736748e-02 -2.3367212e+00 -5.4331553e-02)	1.1121651e+05	2.9276743e+02
0.00012139     	(-7.7885354e-02 -2.2237865e+00 -5.6714508e-02)	1.1114953e+05	2.9271288e+02
0.00012186     	(-8.8148742e-02 -2.0985396e+00 -5.7462284e-02)	1.1107513e+05	2.9265534e+02
0.000122331    	(-9.5840396e-02 -1.9621152e+00 -5.6402800e-02)	1.1099394e+05	2.9259593e+02
0.000122801    	(-1.0021483e-01 -1.8167292e+00 -5.3227521e-02)	1.1090703e+05	2.9253394e+02
0.000123273    	(-1.0096251e-01 -1.6660896e+00 -4.7610387e-02)	1.1081631e+05	2.9247557e+02
0.000123745    	(-9.7518704e-02 -1.5141091e+00 -3.9668620e-02)	1.1072381e+05	2.9242130e+02
0.000124218    	(-8.9679178e-02 -1.3643643e+00 -2.9909113e-02)	1.1063170e+05	2.9236986e+02
0.000124692    	(-7.7899511e-02 -1.2204823e+00 -1.9054644e-02)	1.1054208e+05	2.9232554e+02
0.000125167    	(-6.3048923e-02 -1.0849596e+00 -7.7732482e-03)	1.1045662e+05	2.9228641e+02
0.000125645    	(-4.6038155e-02 -9.5949517e-01 3.3328856e-03)	1.1037634e+05	2.9225331e+02
0.000126121    	(-2.7755744e-02 -8.4650521e-01 1.3931382e-02)	1.1030343e+05	2.9222568e+02
0.000126587    	(-9.3140172e-03 -7.4892552e-01 2.2932646e-02)	1.1023998e+05	2.9220822e+02
0.000127044    	(8.8286591e-03 -6.6636613e-01 3.0512733e-02)	1.1018567e+05	2.9219401e+02
0.000127502    	(2.5769331e-02 -5.9726564e-01 3.6715505e-02)	1.1013903e+05	2.9218296e+02
0.000127958    	(4.0820659e-02 -5.4214210e-01 4.0896811e-02)	1.1010025e+05	2.9217939e+02
0.000128413    	(5.3164704e-02 -5.0117162e-01 4.3111562e-02)	1.1006863e+05	2.9217287e+02
0.000128867    	(6.3742525e-02 -4.7410580e-01 4.3787611e-02)	1.1004451e+05	2.9217037e+02
0.000129322    	(7.1551333e-02 -4.6009675e-01 4.3227469e-02)	1.1002729e+05	2.9217250e+02
0.000129776    	(7.6412389e-02 -4.5827647e-01 4.1984575e-02)	1.1001679e+05	2.9217623e+02
0.00013023     	(7.8615148e-02 -4.6775589e-01 4.0408377e-02)	1.1001302e+05	2.9218200e+02
0.000130687    	(7.8183212e-02 -4.8799759e-01 3.8213344e-02)	1.1001460e+05	2.9218784e+02
0.000131145    	(7.5350131e-02 -5.1890095e-01 3.5365007e-02)	1.1002167e+05	2.9219306e+02
0.000131606    	(6.9441679e-02 -5.5900247e-01 3.2303455e-02)	1.1003383e+05	2.9219620e+02
0.00013207     	(6.0998934e-02 -6.0588356e-01 2.8470479e-02)	1.1004964e+05	2.9220406e+02
0.000132536    	(5.1060881e-02 -6.5734050e-01 2.4403869e-02)	1.1006813e+05	2.9220521e+02
0.000133006    	(3.9579220e-02 -7.1148103e-01 2.0861438e-02)	1.1008818e+05	2.9220855e+02
0.000133477    	(2.7475256e-02 -7.6568357e-01 1.7500559e-02)	1.1010914e+05	2.9221393e+02
0.000133949    	(1.5100676e-02 -8.1790899e-01 1.4656661e-02)	1.1013014e+05	2.9221993e+02
0.00013442     	(2.4995418e-03 -8.6695069e-01 1.2601080e-02)	1.1015035e+05	2.9222365e+02
0.000134892    	(-9.9053790e-03 -9.1152199e-01 1.1319562e-02)	1.1016896e+05	2.9222447e+02
0.000135365    	(-2.1250168e-02 -9.4972372e-01 1.0577989e-02)	1.1018532e+05	2.9222447e+02
0.000135837    	(-3.1628289e-02 -9.7987638e-01 1.0420697e-02)	1.1019836e+05	2.9222368e+02
0.000136311    	(-4.0727345e-02 -1.0001813e+00 1.0866118e-02)	1.1020714e+05	2.9222372e+02
0.000136786    	(-4.8320612e-02 -1.0092363e+00 1.1813143e-02)	1.1021072e+05	2.9221621e+02
0.000137262    	(-5.4266320e-02 -1.0061379e+00 1.3175819e-02)	1.1020815e+05	2.9220636e+02
0.000137737    	(-5.7896599e-02 -9.8958113e-01 1.4842517e-02)	1.1019883e+05	2.9219357e+02
0.000138211    	(-5.8626181e-02 -9.5865496e-01 1.6986794e-02)	1.1018214e+05	2.9217614e+02
0.000138683    	(-5.6287834e-02 -9.1296853e-01 1.9470451e-02)	1.1015759e+05	2.9215693e+02
0.000139154    	(-5.0884317e-02 -8.5250252e-01 2.2003318e-02)	1.1012491e+05	2.9213644e+02
0.000139624    	(-4.2617127e-02 -7.7741260e-01 2.4322205e-02)	1.1008427e+05	2.9211385e+02
0.000140095    	(-3.1997124e-02 -6.8802045e-01 2.6331956e-02)	1.1003586e+05	2.9209723e+02
0.000140566    	(-1.9321622e-02 -5.8577704e-01 2.7889998e-02)	1.0998059e+05	2.9208258e+02
0.000141037    	(-5.6712526e-03 -4.7323965e-01 2.9299963e-02)	1.0992008e+05	2.9207076e+02
0.000141507    	(8.9626617e-03 -3.5280748e-01 2.9725169e-02)	1.0985630e+05	2.9208349e+02
0.000141976    	(2.3676535e-02 -2.2736681e-01 2.9696854e-02)	1.0979121e+05	2.9208985e+02
0.000142446    	(3.8196359e-02 -9.9592280e-02 2.8833361e-02)	1.0972714e+05	2.9212425e+02
0.000142915    	(5.2305370e-02 2.7809275e-02 2.7058080e-02)	1.0966605e+05	2.9216024e+02
0.000143384    	(6.3896752e-02 1.5226757e-01 2.3442539e-02)	1.0960940e+05	2.9222651e+02
0.000143851    	(7.3434606e-02 2.7023006e-01 1.9795629e-02)	1.0955959e+05	2.9230472e+02
0.000144316    	(7.9532080e-02 3.7998081e-01 1.6056534e-02)	1.0951688e+05	2.9238050e+02
0.000144781    	(8.2507218e-02 4.7913227e-01 1.2257361e-02)	1.0948345e+05	2.9247071e+02
0.000145246    	(8.2792031e-02 5.6759891e-01 9.5386820e-03)	1.0945652e+05	2.9253828e+02
0.000145711    	(8.2010822e-02 6.4438658e-01 7.7877542e-03)	1.0943643e+05	2.9260019e+02
0.000146179    	(7.9693694e-02 7.0990792e-01 6.3251922e-03)	1.0942194e+05	2.9264257e+02
0.000146646    	(7.5995053e-02 7.6392766e-01 4.1834314e-03)	1.0941045e+05	2.9267668e+02
0.000147112    	(6.9490890e-02 8.0452278e-01 3.1881197e-03)	1.0940328e+05	2.9270732e+02
0.000147576    	(6.1716128e-02 8.3086646e-01 2.7217875e-03)	1.0940075e+05	2.9273093e+02
0.00014804     	(5.3739113e-02 8.4238187e-01 2.2820993e-03)	1.0940335e+05	2.9275273e+02
0.000148504    	(4.6537588e-02 8.3911278e-01 2.4506746e-03)	1.0941144e+05	2.9277307e+02
0.000148969    	(3.9712519e-02 8.2155102e-01 3.4036627e-03)	1.0942464e+05	2.9278676e+02
0.000149434    	(3.3615978e-02 7.8834608e-01 5.2444282e-03)	1.0944347e+05	2.9279561e+02
0.0001499      	(2.8320715e-02 7.3749731e-01 8.0087481e-03)	1.0946872e+05	2.9280265e+02
0.000150366    	(2.3286320e-02 6.6580947e-01 1.1572255e-02)	1.0950212e+05	2.9280574e+02
0.000150833    	(1.8199341e-02 5.7031951e-01 1.4639216e-02)	1.0954444e+05	2.9280538e+02
0.0001513      	(1.2666409e-02 4.4872203e-01 1.7421791e-02)	1.0959720e+05	2.9279811e+02
0.000151769    	(6.4710324e-03 3.0047374e-01 2.0973350e-02)	1.0966054e+05	2.9278294e+02
0.000152238    	(2.0976840e-04 1.2750307e-01 2.5266548e-02)	1.0973323e+05	2.9276805e+02
0.000152709    	(-5.4501243e-03 -6.5544722e-02 2.9665722e-02)	1.0981287e+05	2.9276284e+02
0.00015318     	(-9.4867190e-03 -2.7035638e-01 3.3314597e-02)	1.0989665e+05	2.9275993e+02
0.000153651    	(-1.0827184e-02 -4.7753803e-01 3.5542272e-02)	1.0998157e+05	2.9277491e+02
0.000154124    	(-9.4371993e-03 -6.7880940e-01 3.6789804e-02)	1.1006467e+05	2.9279506e+02
0.000154598    	(-6.1300822e-03 -8.6641393e-01 3.7244421e-02)	1.1014303e+05	2.9281696e+02
0.000155072    	(-1.1842249e-03 -1.0340647e+00 3.6566622e-02)	1.1021438e+05	2.9283575e+02
0.000155547    	(4.4020340e-03 -1.1783222e+00 3.5032929e-02)	1.1027684e+05	2.9284817e+02
0.000156023    	(1.0481606e-02 -1.2973289e+00 3.2766259e-02)	1.1032939e+05	2.9285383e+02
0.0001565      	(1.6707851e-02 -1.3916375e+00 3.0096448e-02)	1.1037175e+05	2.9285733e+02
0.000156977    	(2.2770944e-02 -1.4631143e+00 2.7200388e-02)	1.1040421e+05	2.9285551e+02
0.000157456    	(2.8117386e-02 -1.5139253e+00 2.4530530e-02)	1.1042727e+05	2.9284881e+02
0.000157936    	(3.2486737e-02 -1.5462222e+00 2.1953036e-02)	1.1044166e+05	2.9283769e+02