# Region type : patch inlet
# Faces  :     778
# Area   :     6.2874094e-05
# Time         	sum(phi)
0              	0.0000000e+00
4.84226e-07    	-1.2992633e-03
9.11553e-07    	-1.2628240e-03
1.34502e-06    	-1.2648287e-03
1.77906e-06    	-1.3143738e-03
2.21287e-06    	-1.3808547e-03
2.64549e-06    	-1.4504475e-03
3.07543e-06    	-1.5202743e-03
3.50377e-06    	-1.5915471e-03
3.93083e-06    	-1.6607989e-03
4.35662e-06    	-1.7249061e-03
4.78118e-06    	-1.7819464e-03
5.20455e-06    	-1.8318889e-03
5.62692e-06    	-1.8765516e-03
6.04855e-06    	-1.9142157e-03
6.46975e-06    	-1.9455946e-03
6.89092e-06    	-1.9695465e-03
7.31239e-06    	-1.9845890e-03
7.73458e-06    	-1.9906712e-03
8.15777e-06    	-1.9866476e-03
8.58227e-06    	-1.9713111e-03
9.00825e-06    	-1.9441536e-03
9.4358e-06     	-1.9056409e-03
9.86479e-06    	-1.8567283e-03
1.02951e-05    	-1.7982276e-03
1.07265e-05    	-1.7312147e-03
1.11588e-05    	-1.6568094e-03
1.15919e-05    	-1.5799930e-03
1.20257e-05    	-1.5071894e-03
1.24603e-05    	-1.4413683e-03
1.28952e-05    	-1.3832417e-03
1.333e-05      	-1.3337436e-03
1.37645e-05    	-1.2929286e-03
1.4197e-05     	-1.2607087e-03
1.46269e-05    	-1.2359545e-03
1.50544e-05    	-1.2171561e-03
1.54806e-05    	-1.2020891e-03
1.59055e-05    	-1.1889934e-03
1.63294e-05    	-1.1731496e-03
1.67524e-05    	-1.1514789e-03
1.7175e-05     	-1.1243315e-03
1.75975e-05    	-1.0899725e-03
1.802e-05      	-1.0494238e-03
1.84427e-05    	-1.0045330e-03
1.8866e-05     	-9.5731628e-04
1.929e-05      	-9.1394889e-04
1.97149e-05    	-8.7670441e-04
2.0141e-05     	-8.4906649e-04
2.05682e-05    	-8.3468260e-04
2.09964e-05    	-8.3743110e-04
2.14256e-05    	-8.5874646e-04
2.18555e-05    	-8.9901923e-04
2.2286e-05     	-9.6008050e-04
2.27172e-05    	-1.0401054e-03
2.3149e-05     	-1.1365620e-03
2.35812e-05    	-1.2478250e-03
2.40137e-05    	-1.3712030e-03
2.44461e-05    	-1.5021528e-03
2.48778e-05    	-1.6376143e-03
2.53088e-05    	-1.7754147e-03
2.57389e-05    	-1.9140510e-03
2.61682e-05    	-2.0525037e-03
2.65963e-05    	-2.1885796e-03
2.70233e-05    	-2.3196231e-03
2.7449e-05     	-2.4409075e-03
2.78734e-05    	-2.5464394e-03
2.82966e-05    	-2.6299788e-03
2.87189e-05    	-2.6873820e-03
2.91407e-05    	-2.7181885e-03
2.95624e-05    	-2.7265575e-03
2.99844e-05    	-2.7206654e-03
3.04069e-05    	-2.7013485e-03
3.08304e-05    	-2.6711838e-03
3.12553e-05    	-2.6347776e-03
3.16817e-05    	-2.5930930e-03
3.21097e-05    	-2.5479059e-03
3.25391e-05    	-2.4994068e-03
3.29699e-05    	-2.4472864e-03
3.34017e-05    	-2.3904361e-03
3.38345e-05    	-2.3359221e-03
3.42677e-05    	-2.2826681e-03
3.47007e-05    	-2.2313596e-03
3.51333e-05    	-2.1850398e-03
3.55651e-05    	-2.1433836e-03
3.59963e-05    	-2.1046376e-03
3.64268e-05    	-2.0716040e-03
3.68566e-05    	-2.0456786e-03
3.72856e-05    	-2.0261410e-03
3.77135e-05    	-2.0136489e-03
3.81408e-05    	-2.0040074e-03
3.85677e-05    	-1.9967518e-03
3.89944e-05    	-1.9889312e-03
3.94213e-05    	-1.9812395e-03
3.98486e-05    	-1.9726202e-03
4.02764e-05    	-1.9617855e-03
4.07049e-05    	-1.9503248e-03
4.1134e-05     	-1.9374900e-03
4.15638e-05    	-1.9242057e-03
4.19942e-05    	-1.9102028e-03
4.24252e-05    	-1.8975754e-03
4.28566e-05    	-1.8851408e-03
4.32884e-05    	-1.8739867e-03
4.37207e-05    	-1.8642127e-03
4.41533e-05    	-1.8555295e-03
4.45862e-05    	-1.8511720e-03
4.50196e-05    	-1.8543205e-03
4.54532e-05    	-1.8674933e-03
4.58872e-05    	-1.8858107e-03
4.63207e-05    	-1.9054297e-03
4.67533e-05    	-1.9237681e-03
4.7185e-05     	-1.9380666e-03
4.76158e-05    	-1.9480123e-03
4.80458e-05    	-1.9547738e-03
4.84747e-05    	-1.9603073e-03
4.89025e-05    	-1.9670768e-03
4.93292e-05    	-1.9767247e-03
4.97549e-05    	-1.9914245e-03
5.01796e-05    	-2.0092652e-03
5.06037e-05    	-2.0288688e-03
5.10274e-05    	-2.0480078e-03
5.14512e-05    	-2.0662944e-03
5.18754e-05    	-2.0821883e-03
5.23e-05       	-2.0958246e-03
5.27252e-05    	-2.1049693e-03
5.31511e-05    	-2.1065348e-03
5.35776e-05    	-2.1012964e-03
5.40048e-05    	-2.0865287e-03
5.44325e-05    	-2.0601352e-03
5.48603e-05    	-2.0169119e-03
5.52879e-05    	-1.9556118e-03
5.57147e-05    	-1.8792425e-03
5.61404e-05    	-1.7901081e-03
5.65653e-05    	-1.6928724e-03
5.69896e-05    	-1.5910412e-03
5.7413e-05     	-1.4886386e-03
5.78356e-05    	-1.3907734e-03
5.82573e-05    	-1.2997565e-03
5.86784e-05    	-1.2185624e-03
5.90991e-05    	-1.1468597e-03
5.95202e-05    	-1.0860282e-03
5.99424e-05    	-1.0350538e-03
6.03662e-05    	-9.9187719e-04
6.07916e-05    	-9.5556381e-04
6.12187e-05    	-9.2364113e-04
6.16474e-05    	-8.9555265e-04
6.20776e-05    	-8.7426564e-04
6.25093e-05    	-8.6299045e-04
6.29423e-05    	-8.6204909e-04
6.33765e-05    	-8.6955252e-04
6.3812e-05     	-8.8624426e-04
6.42487e-05    	-9.1091531e-04
6.46864e-05    	-9.4470951e-04
6.51252e-05    	-9.8930162e-04
6.55648e-05    	-1.0466106e-03
6.60053e-05    	-1.1183099e-03
6.64463e-05    	-1.2065258e-03
6.68871e-05    	-1.3125993e-03
6.73271e-05    	-1.4373081e-03
6.77661e-05    	-1.5758423e-03
6.82034e-05    	-1.7223916e-03
6.86389e-05    	-1.8727215e-03
6.90726e-05    	-2.0245133e-03
6.95044e-05    	-2.1735535e-03
6.99346e-05    	-2.3156544e-03
7.03631e-05    	-2.4465884e-03
7.07899e-05    	-2.5634377e-03
7.12152e-05    	-2.6649084e-03
7.16391e-05    	-2.7505937e-03
7.20618e-05    	-2.8227821e-03
7.24838e-05    	-2.8823236e-03
7.29052e-05    	-2.9294764e-03
7.33263e-05    	-2.9643669e-03
7.37473e-05    	-2.9862659e-03
7.41684e-05    	-2.9939180e-03
7.45901e-05    	-2.9871600e-03
7.50123e-05    	-2.9648174e-03
7.54353e-05    	-2.9266872e-03
7.58591e-05    	-2.8723601e-03
7.62837e-05    	-2.8003847e-03
7.67091e-05    	-2.7077009e-03
7.71346e-05    	-2.5922662e-03
7.75594e-05    	-2.4528234e-03
7.79836e-05    	-2.2929760e-03
7.8407e-05     	-2.1191827e-03
7.88294e-05    	-1.9386130e-03
7.92506e-05    	-1.7593979e-03
7.96705e-05    	-1.5875003e-03
8.00894e-05    	-1.4265568e-03
8.05076e-05    	-1.2798570e-03
8.09257e-05    	-1.1484545e-03
8.13446e-05    	-1.0363700e-03
8.1765e-05     	-9.4484998e-04
8.21872e-05    	-8.7426094e-04
8.26112e-05    	-8.2707020e-04
8.30369e-05    	-8.0046565e-04
8.34642e-05    	-7.9213598e-04
8.38934e-05    	-7.9899835e-04
8.43242e-05    	-8.1751815e-04
8.47564e-05    	-8.4490204e-04
8.51899e-05    	-8.7806860e-04
8.56246e-05    	-9.1776896e-04
8.60603e-05    	-9.6381598e-04
8.6497e-05     	-1.0164866e-03
8.69346e-05    	-1.0752265e-03
8.7373e-05     	-1.1417041e-03
8.78122e-05    	-1.2169141e-03
8.82521e-05    	-1.3007832e-03
8.86925e-05    	-1.3918119e-03
8.91328e-05    	-1.4893457e-03
8.95727e-05    	-1.5905493e-03
9.0012e-05     	-1.6925404e-03
9.04504e-05    	-1.7933889e-03
9.08879e-05    	-1.8922895e-03
9.13244e-05    	-1.9875668e-03
9.17599e-05    	-2.0787597e-03
9.21944e-05    	-2.1653672e-03
9.26278e-05    	-2.2476224e-03
9.30601e-05    	-2.3260420e-03
9.34912e-05    	-2.4008879e-03
9.39212e-05    	-2.4731601e-03
9.43503e-05    	-2.5429475e-03
9.47786e-05    	-2.6102053e-03
9.52062e-05    	-2.6748257e-03
9.56334e-05    	-2.7382895e-03
9.60605e-05    	-2.8006415e-03
9.64875e-05    	-2.8593662e-03
9.69147e-05    	-2.9129715e-03
9.73423e-05    	-2.9590981e-03
9.77704e-05    	-2.9939946e-03
9.81991e-05    	-3.0161575e-03
9.86283e-05    	-3.0199809e-03
9.9058e-05     	-3.0046897e-03
9.94879e-05    	-2.9680964e-03
9.99179e-05    	-2.9092667e-03
0.000100348    	-2.8296276e-03
0.000100777    	-2.7326919e-03
0.000101204    	-2.6235359e-03
0.000101629    	-2.5075027e-03
0.000102052    	-2.3901589e-03
0.000102474    	-2.2769488e-03
0.000102895    	-2.1701236e-03
0.000103315    	-2.0689454e-03
0.000103735    	-1.9723964e-03
0.000104156    	-1.8805196e-03
0.000104577    	-1.7901589e-03
0.000105       	-1.6982976e-03
0.000105423    	-1.6032759e-03
0.000105848    	-1.5052539e-03
0.000106275    	-1.4030062e-03
0.000106703    	-1.2979812e-03
0.000107133    	-1.1921935e-03
0.000107564    	-1.0876485e-03
0.000107996    	-9.8814433e-04
0.00010843     	-8.9958840e-04
0.000108865    	-8.2835265e-04
0.000109301    	-7.7961171e-04
0.000109738    	-7.5810024e-04
0.000110175    	-7.6642993e-04
0.000110613    	-8.0682998e-04
0.000111052    	-8.7849166e-04
0.00011149     	-9.7522633e-04
0.000111928    	-1.0909435e-03
0.000112366    	-1.2200879e-03
0.000112803    	-1.3571905e-03
0.000113239    	-1.4964975e-03
0.000113674    	-1.6351374e-03
0.000114108    	-1.7719401e-03
0.000114541    	-1.9044218e-03
0.000114973    	-2.0319207e-03
0.000115405    	-2.1518486e-03
0.000115835    	-2.2647042e-03
0.000116264    	-2.3709774e-03
0.000116691    	-2.4712332e-03
0.000117117    	-2.5653241e-03
0.000117541    	-2.6521425e-03
0.000117965    	-2.7326864e-03
0.000118388    	-2.8067842e-03
0.000118812    	-2.8727062e-03
0.000119235    	-2.9278679e-03
0.000119659    	-2.9694041e-03
0.000120083    	-2.9935481e-03
0.000120508    	-3.0000022e-03
0.000120934    	-2.9910147e-03
0.000121361    	-2.9596480e-03
0.00012179     	-2.8988116e-03
0.000122219    	-2.8075264e-03
0.000122649    	-2.6877587e-03
0.00012308     	-2.5452537e-03
0.000123511    	-2.3901670e-03
0.000123942    	-2.2334949e-03
0.000124374    	-2.0819384e-03
0.000124804    	-1.9433987e-03
0.000125235    	-1.8238076e-03
0.000125665    	-1.7218986e-03
0.000126094    	-1.6375757e-03
0.000126523    	-1.5707349e-03
0.000126951    	-1.5198374e-03
0.000127379    	-1.4810940e-03
0.000127806    	-1.4515905e-03
0.000128232    	-1.4284817e-03
0.000128657    	-1.4087427e-03
0.000129082    	-1.3923595e-03
0.000129506    	-1.3775506e-03
0.000129931    	-1.3612012e-03
0.000130357    	-1.3459579e-03
0.000130783    	-1.3331534e-03
0.00013121     	-1.3225578e-03
0.000131639    	-1.3157843e-03
0.000132069    	-1.3114003e-03
0.0001325      	-1.3099599e-03
0.000132932    	-1.3118429e-03
0.000133366    	-1.3180504e-03
0.000133801    	-1.3290348e-03
0.000134236    	-1.3492734e-03
0.000134671    	-1.3803086e-03
0.000135106    	-1.4217263e-03
0.000135541    	-1.4700726e-03
0.000135974    	-1.5247764e-03
0.000136407    	-1.5852401e-03
0.000136837    	-1.6511576e-03
0.000137266    	-1.7186718e-03
0.000137693    	-1.7835222e-03
0.000138118    	-1.8435868e-03
0.000138541    	-1.8954308e-03
0.000138963    	-1.9388444e-03
0.000139384    	-1.9715983e-03
0.000139805    	-1.9974171e-03
0.000140226    	-2.0161907e-03
0.000140647    	-2.0310291e-03
0.00014107     	-2.0414842e-03
0.000141493    	-2.0482729e-03
0.000141918    	-2.0507695e-03
0.000142345    	-2.0489101e-03
0.000142773    	-2.0410923e-03
0.000143202    	-2.0278911e-03
0.000143632    	-2.0111801e-03
0.000144063    	-1.9881404e-03
0.000144495    	-1.9590270e-03
0.000144928    	-1.9226340e-03
0.000145359    	-1.8818595e-03
0.000145791    	-1.8394263e-03
0.000146221    	-1.7956078e-03
0.00014665     	-1.7531242e-03
0.000147079    	-1.7146057e-03
0.000147507    	-1.6809480e-03
0.000147934    	-1.6516718e-03
0.000148361    	-1.6257305e-03
0.000148787    	-1.6026743e-03
0.000149214    	-1.5811874e-03
0.00014964     	-1.5568139e-03
0.000150065    	-1.5292832e-03
0.00015049     	-1.4963997e-03
0.000150914    	-1.4595996e-03
0.000151338    	-1.4183536e-03
0.000151762    	-1.3737534e-03
0.000152187    	-1.3286007e-03
0.000152612    	-1.2875521e-03
0.000153038    	-1.2517318e-03
0.000153465    	-1.2234363e-03
0.000153893    	-1.2056123e-03
0.000154322    	-1.2007837e-03
0.000154752    	-1.2074607e-03
0.000155183    	-1.2260882e-03
0.000155614    	-1.2537596e-03
0.000156047    	-1.2904527e-03
0.00015648     	-1.3337647e-03
0.000156913    	-1.3815079e-03
0.000157345    	-1.4311744e-03
0.000157777    	-1.4826897e-03
0.000158208    	-1.5348795e-03
0.000158638    	-1.5885528e-03
0.000159068    	-1.6442952e-03
0.000159497    	-1.7012329e-03
0.000159926    	-1.7585853e-03
0.000160354    	-1.8148277e-03
0.000160781    	-1.8706459e-03
0.000161206    	-1.9257388e-03
0.000161631    	-1.9793656e-03
0.000162055    	-2.0299868e-03
0.000162479    	-2.0755510e-03
0.000162904    	-2.1148552e-03
0.000163328    	-2.1458046e-03
0.000163754    	-2.1675908e-03
0.00016418     	-2.1802748e-03
0.000164608    	-2.1807393e-03
0.000165037    	-2.1661568e-03
0.000165468    	-2.1353851e-03
0.000165899    	-2.0876872e-03
0.000166332    	-2.0219447e-03
0.000166765    	-1.9387476e-03
0.000167199    	-1.8422277e-03
0.000167633    	-1.7389944e-03
0.000168067    	-1.6355952e-03
0.000168501    	-1.5377175e-03
0.000168933    	-1.4483457e-03
0.000169366    	-1.3724000e-03
0.000169797    	-1.3125361e-03
0.000170227    	-1.2723512e-03
0.000170657    	-1.2496273e-03
0.000171086    	-1.2444863e-03
0.000171513    	-1.2549707e-03
0.000171941    	-1.2764380e-03
0.000172368    	-1.3072418e-03
0.000172795    	-1.3406174e-03
0.000173223    	-1.3757797e-03
0.000173651    	-1.4095189e-03
0.00017408     	-1.4425759e-03
0.00017451     	-1.4751803e-03
0.000174941    	-1.5093987e-03
0.000175373    	-1.5469321e-03
0.000175806    	-1.5911555e-03
0.00017624     	-1.6449215e-03
0.000176675    	-1.7102230e-03
0.000177111    	-1.7877853e-03
0.000177547    	-1.8803224e-03
0.000177985    	-1.9855333e-03
0.000178422    	-2.1016926e-03
0.000178859    	-2.2258784e-03
0.000179295    	-2.3557194e-03
0.00017973     	-2.4883014e-03
0.000180165    	-2.6196463e-03
0.000180598    	-2.7460487e-03
0.000181031    	-2.8636066e-03
0.000181463    	-2.9687247e-03
0.000181894    	-3.0594880e-03
0.000182323    	-3.1350792e-03
0.000182751    	-3.1963202e-03
0.000183178    	-3.2445970e-03
0.000183602    	-3.2827217e-03
0.000184026    	-3.3129560e-03
0.000184448    	-3.3372033e-03
0.000184869    	-3.3555156e-03
0.00018529     	-3.3684660e-03
0.000185712    	-3.3766576e-03
0.000186133    	-3.3807355e-03
0.000186555    	-3.3788410e-03
0.000186978    	-3.3694781e-03
0.000187401    	-3.3525610e-03
0.000187825    	-3.3260814e-03
0.00018825     	-3.2896626e-03
0.000188675    	-3.2434658e-03
0.0001891      	-3.1872709e-03
0.000189525    	-3.1212753e-03
0.000189948    	-3.0472679e-03
0.000190371    	-2.9680547e-03
0.000190792    	-2.8837839e-03
0.000191212    	-2.7962877e-03
0.000191632    	-2.7072803e-03
0.00019205     	-2.6180460e-03
0.00019247     	-2.5280859e-03
0.00019289     	-2.4371121e-03
0.000193312    	-2.3467417e-03
0.000193735    	-2.2561613e-03
0.000194161    	-2.1698543e-03
0.000194588    	-2.0894502e-03
0.000195017    	-2.0175081e-03
0.000195448    	-1.9546155e-03
0.000195881    	-1.9012658e-03
0.000196316    	-1.8575028e-03
0.000196752    	-1.8231970e-03
0.00019719     	-1.7967631e-03
0.000197628    	-1.7778450e-03
0.000198067    	-1.7666056e-03
0.000198508    	-1.7629617e-03
0.000198948    	-1.7686667e-03
0.000199389    	-1.7836817e-03
0.00019983     	-1.8094991e-03
0.000200271    	-1.8476153e-03
0.000200711    	-1.8977621e-03
0.000201151    	-1.9590937e-03
0.00020159     	-2.0296318e-03
0.000202029    	-2.1036196e-03
0.000202466    	-2.1777974e-03
0.000202902    	-2.2490218e-03
0.000203338    	-2.3155583e-03
0.000203772    	-2.3738264e-03
0.000204205    	-2.4227213e-03
0.000204636    	-2.4620803e-03
0.000205067    	-2.4915630e-03
0.000205497    	-2.5134344e-03
0.000205927    	-2.5295831e-03
0.000206355    	-2.5393235e-03
0.000206784    	-2.5438279e-03
0.000207212    	-2.5431017e-03
0.00020764     	-2.5359366e-03
0.000208068    	-2.5212354e-03
0.000208495    	-2.4978263e-03
0.000208922    	-2.4660969e-03
0.000209348    	-2.4241135e-03
0.000209774    	-2.3698069e-03
0.000210199    	-2.3045016e-03
0.000210622    	-2.2285005e-03
0.000211045    	-2.1408376e-03
0.000211467    	-2.0443966e-03
0.000211887    	-1.9416071e-03
0.000212306    	-1.8371149e-03
0.000212723    	-1.7361637e-03
0.000213139    	-1.6451197e-03
0.000213554    	-1.5651403e-03
0.000213968    	-1.4960490e-03
0.000214382    	-1.4377386e-03
0.000214797    	-1.3869191e-03
0.000215213    	-1.3395530e-03
0.00021563     	-1.2943872e-03
0.00021605     	-1.2471165e-03
0.000216471    	-1.1972300e-03
0.000216894    	-1.1414107e-03
0.000217319    	-1.0796880e-03
0.000217745    	-1.0119108e-03
0.000218174    	-9.3991638e-04
0.000218604    	-8.6576538e-04
0.000219035    	-7.9380772e-04
0.000219468    	-7.2728421e-04
0.000219902    	-6.6790405e-04
0.000220338    	-6.1886132e-04
0.000220774    	-5.8350481e-04
0.000221212    	-5.6109078e-04
0.000221651    	-5.5642793e-04
0.000222089    	-5.6658981e-04
0.000222527    	-5.9224719e-04
0.000222965    	-6.3058685e-04
0.000223402    	-6.8053538e-04
0.000223839    	-7.3660624e-04
0.000224274    	-7.9487531e-04
0.000224709    	-8.5328706e-04
0.000225143    	-9.0999157e-04
0.000225576    	-9.6490978e-04
0.000226008    	-1.0170834e-03
0.000226439    	-1.0656295e-03
0.000226869    	-1.1117210e-03
0.000227297    	-1.1567278e-03
0.000227724    	-1.2003995e-03
0.000228149    	-1.2443725e-03
0.000228572    	-1.2873683e-03
0.000228995    	-1.3275818e-03
0.000229417    	-1.3637770e-03
0.00022984     	-1.3943272e-03
0.000230262    	-1.4163811e-03
0.000230685    	-1.4292755e-03
0.000231109    	-1.4324899e-03
0.000231535    	-1.4248360e-03
0.000231961    	-1.4058577e-03
0.000232389    	-1.3729389e-03
0.000232817    	-1.3275876e-03
0.000233246    	-1.2696544e-03
0.000233676    	-1.1998816e-03
0.000234105    	-1.1191613e-03
0.000234534    	-1.0330441e-03
0.000234961    	-9.4470376e-04
0.000235388    	-8.5632286e-04
0.000235813    	-7.7288716e-04
0.000236238    	-6.9888622e-04
0.000236663    	-6.3507357e-04
0.000237088    	-5.8416119e-04
0.000237512    	-5.4624881e-04
0.000237937    	-5.2538420e-04
0.000238362    	-5.1804665e-04
0.000238788    	-5.2376694e-04
0.000239213    	-5.3856289e-04
0.000239639    	-5.5825184e-04
0.000240065    	-5.7881940e-04
0.000240491    	-5.9834333e-04
0.000240917    	-6.1548085e-04
0.000241343    	-6.2943233e-04
0.000241769    	-6.4139017e-04
0.000242197    	-6.5076388e-04
0.000242625    	-6.6094252e-04
0.000243055    	-6.7340030e-04
0.000243485    	-6.9040358e-04
0.000243917    	-7.1560789e-04
0.00024435     	-7.5189327e-04
0.000244783    	-8.0048334e-04
0.000245218    	-8.6024647e-04
0.000245653    	-9.3170566e-04
0.000246089    	-1.0127752e-03
0.000246524    	-1.1011353e-03
0.000246958    	-1.1952425e-03
0.000247391    	-1.2947014e-03
0.000247822    	-1.3956887e-03
0.000248253    	-1.4967326e-03
0.000248682    	-1.5940439e-03
0.00024911     	-1.6839803e-03
0.000249537    	-1.7635643e-03
0.000249962    	-1.8311007e-03
0.000250386    	-1.8840104e-03
0.000250809    	-1.9218642e-03
0.000251231    	-1.9447342e-03
0.000251652    	-1.9524647e-03
0.000252074    	-1.9461294e-03
0.000252496    	-1.9263165e-03
0.000252919    	-1.8938531e-03
0.000253343    	-1.8508331e-03
0.000253767    	-1.7984446e-03
0.000254194    	-1.7384991e-03
0.000254621    	-1.6736060e-03
0.00025505     	-1.6064415e-03
0.00025548     	-1.5400921e-03
0.000255911    	-1.4777836e-03
0.000256342    	-1.4214927e-03
0.000256774    	-1.3714909e-03
0.000257207    	-1.3276747e-03
0.000257638    	-1.2883550e-03
0.00025807     	-1.2497004e-03
0.0002585      	-1.2065154e-03
0.00025893     	-1.1585615e-03
0.00025936     	-1.1075481e-03
0.000259789    	-1.0530823e-03
0.000260218    	-9.9430079e-04
0.000260647    	-9.3252063e-04
0.000261076    	-8.6785815e-04
0.000261505    	-8.0170803e-04
0.000261935    	-7.3291457e-04
0.000262365    	-6.6551660e-04
0.000262796    	-6.0216591e-04
0.000263227    	-5.4780650e-04
0.000263659    	-5.0407135e-04
0.000264091    	-4.7131258e-04
0.000264523    	-4.4912995e-04
0.000264956    	-4.3937705e-04
0.000265389    	-4.4174488e-04
0.000265821    	-4.5779090e-04
0.000266254    	-4.8580261e-04
0.000266686    	-5.2583702e-04
0.000267118    	-5.7694474e-04
0.00026755     	-6.3970325e-04
0.000267982    	-7.1212115e-04
0.000268415    	-7.9210404e-04
0.000268847    	-8.7659374e-04
0.00026928     	-9.6237681e-04
0.000269712    	-1.0495450e-03
0.000270143    	-1.1376021e-03
0.000270573    	-1.2248460e-03
0.000271002    	-1.3113615e-03
0.00027143     	-1.3967694e-03
0.000271858    	-1.4794961e-03
0.000272284    	-1.5598792e-03
0.00027271     	-1.6387674e-03
0.000273135    	-1.7162603e-03
0.00027356     	-1.7922593e-03
0.000273985    	-1.8648005e-03
0.00027441     	-1.9315596e-03
0.000274835    	-1.9885328e-03
0.000275261    	-2.0336098e-03
0.000275688    	-2.0647349e-03
0.000276115    	-2.0785619e-03
0.000276544    	-2.0698209e-03
0.000276973    	-2.0342124e-03
0.000277403    	-1.9700577e-03
0.000277833    	-1.8777503e-03
0.000278264    	-1.7596581e-03
0.000278695    	-1.6192064e-03
0.000279125    	-1.4615930e-03
0.000279556    	-1.2943773e-03
0.000279986    	-1.1287236e-03
0.000280415    	-9.7090003e-04
0.000280844    	-8.2186681e-04
0.000281273    	-6.8672779e-04
0.000281701    	-5.7097495e-04
0.000282128    	-4.7709369e-04
0.000282555    	-4.0318451e-04
0.000282981    	-3.5033882e-04
0.000283406    	-3.1335020e-04
0.000283831    	-2.8883905e-04
0.000284257    	-2.7491128e-04
0.000284683    	-2.6793446e-04
0.000285111    	-2.6416007e-04
0.00028554     	-2.6293494e-04
0.00028597     	-2.6439655e-04
0.000286402    	-2.6859019e-04
0.000286834    	-2.7631901e-04
0.000287267    	-2.8689535e-04
0.000287702    	-3.0599991e-04
0.000288137    	-3.3525941e-04
0.000288572    	-3.7782230e-04
0.000289009    	-4.3709303e-04
0.000289445    	-5.1481390e-04
0.000289883    	-6.1035026e-04
0.00029032     	-7.2403870e-04
0.000290756    	-8.5067478e-04
0.000291192    	-9.8687828e-04
0.000291626    	-1.1299980e-03
0.000292059    	-1.2760932e-03
0.000292491    	-1.4196605e-03
0.000292922    	-1.5553002e-03
0.000293352    	-1.6778517e-03
0.00029378     	-1.7837240e-03
0.000294206    	-1.8715373e-03
0.00029463     	-1.9419960e-03
0.000295052    	-1.9950147e-03
0.000295474    	-2.0300787e-03
0.000295895    	-2.0479254e-03
0.000296315    	-2.0492537e-03
0.000296736    	-2.0354044e-03
0.000297157    	-2.0059202e-03
0.000297578    	-1.9634840e-03
0.000298       	-1.9091387e-03
0.000298423    	-1.8443514e-03
0.000298847    	-1.7684043e-03
0.000299273    	-1.6831852e-03
0.000299699    	-1.5914635e-03
0.000300126    	-1.4941299e-03
0.000300553    	-1.3914734e-03
0.000300979    	-1.2841561e-03
0.000301405    	-1.1748934e-03
0.000301829    	-1.0643867e-03
0.000302253    	-9.5531295e-04
0.000302675    	-8.4969217e-04
0.000303096    	-7.4867683e-04
0.000303516    	-6.5588231e-04
0.000303935    	-5.7252203e-04
0.000304353    	-4.9749811e-04
0.000304772    	-4.3295239e-04
0.000305193    	-3.7655701e-04
0.000305615    	-3.3033355e-04
0.000306039    	-2.9325421e-04
0.000306464    	-2.6346467e-04
0.000306892    	-2.4065524e-04
0.000307321    	-2.2435917e-04
0.000307752    	-2.1646670e-04
0.000308185    	-2.1612803e-04
0.00030862     	-2.2392840e-04
0.000309055    	-2.3948082e-04
0.000309492    	-2.6458695e-04
0.00030993     	-2.9927497e-04
0.000310369    	-3.4675498e-04
0.000310808    	-4.0634941e-04
0.000311249    	-4.7858539e-04
0.000311689    	-5.6235953e-04
0.00031213     	-6.5616696e-04
0.00031257     	-7.5901210e-04
0.00031301     	-8.6879819e-04
0.000313448    	-9.8534867e-04
0.000313885    	-1.1062531e-03
0.000314321    	-1.2292943e-03
0.000314756    	-1.3514250e-03
0.000315189    	-1.4704881e-03
0.000315621    	-1.5845335e-03
0.000316051    	-1.6912252e-03
0.000316481    	-1.7902478e-03
0.000316908    	-1.8803208e-03
0.000317334    	-1.9601723e-03
0.000317759    	-2.0276033e-03
0.000318182    	-2.0809271e-03
0.000318604    	-2.1184237e-03
0.000319026    	-2.1386766e-03
0.000319448    	-2.1389804e-03
0.000319869    	-2.1174654e-03
0.000320292    	-2.0726232e-03
0.000320715    	-2.0021629e-03
0.000321138    	-1.9050036e-03
0.000321563    	-1.7842474e-03
0.000321989    	-1.6435278e-03
0.000322416    	-1.4859972e-03
0.000322843    	-1.3167886e-03
0.00032327     	-1.1430026e-03
0.000323697    	-9.7127753e-04
0.000324123    	-8.0746387e-04
0.000324547    	-6.5835329e-04
0.000324971    	-5.2875477e-04
0.000325394    	-4.2031265e-04
0.000325817    	-3.3142146e-04
0.00032624     	-2.6055784e-04
0.000326664    	-2.0478539e-04
0.000327088    	-1.6199699e-04
0.000327513    	-1.2832261e-04
0.000327939    	-1.0235480e-04
0.000328366    	-8.0059336e-05
0.000328794    	-6.1863452e-05
0.000329222    	-4.5076053e-05
0.000329652    	-3.2602034e-05
0.000330082    	-2.1735662e-05
0.000330514    	-1.4950768e-05
0.000330946    	-1.5005035e-05
0.000331379    	-2.8396441e-05
0.000331813    	-5.7777699e-05
0.000332248    	-1.0876501e-04
0.000332684    	-1.8141278e-04
0.000333121    	-2.7577613e-04
0.000333558    	-3.9386188e-04
0.000333995    	-5.3480793e-04
0.000334433    	-6.9495219e-04
0.00033487     	-8.6846602e-04
0.000335308    	-1.0472282e-03
0.000335744    	-1.2278136e-03
0.000336181    	-1.4050771e-03
0.000336616    	-1.5726187e-03
0.000337051    	-1.7264039e-03
0.000337485    	-1.8646352e-03
0.000337918    	-1.9849251e-03
0.000338351    	-2.0876055e-03
0.000338781    	-2.1740260e-03
0.000339211    	-2.2442490e-03
0.000339638    	-2.3013057e-03
0.000340064    	-2.3466692e-03
0.000340489    	-2.3839679e-03
0.000340913    	-2.4129825e-03
0.000341336    	-2.4340671e-03
0.000341759    	-2.4459608e-03
0.000342181    	-2.4473616e-03
0.000342604    	-2.4388977e-03
0.000343027    	-2.4202605e-03
0.000343451    	-2.3895907e-03
0.000343875    	-2.3436002e-03
0.000344301    	-2.2794910e-03
0.000344727    	-2.1970052e-03
0.000345154    	-2.0968389e-03
0.000345582    	-1.9802724e-03
0.000346009    	-1.8522845e-03
0.000346436    	-1.7195600e-03
0.000346862    	-1.5872923e-03
0.000347287    	-1.4568696e-03
0.000347712    	-1.3309111e-03
0.000348136    	-1.2128794e-03
0.000348559    	-1.1045425e-03
0.000348982    	-1.0058804e-03
0.000349406    	-9.1564691e-04
0.000349829    	-8.3329898e-04
0.000350253    	-7.5727444e-04
0.000350677    	-6.8618285e-04
0.000351102    	-6.1733090e-04
0.000351529    	-5.5058578e-04
0.000351956    	-4.8410352e-04
0.000352385    	-4.2019786e-04
0.000352815    	-3.5715653e-04
0.000353245    	-2.9883135e-04
0.000353677    	-2.4695366e-04
0.000354109    	-2.0587447e-04
0.000354542    	-1.7589141e-04
0.000354976    	-1.5874656e-04
0.000355409    	-1.5836446e-04
0.000355844    	-1.7907921e-04
0.000356278    	-2.2163792e-04
0.000356713    	-2.8637263e-04
0.000357149    	-3.7177074e-04
0.000357585    	-4.7644716e-04
0.000358021    	-5.9718553e-04
0.000358456    	-7.2910123e-04
0.000358891    	-8.6864876e-04
0.000359325    	-1.0128308e-03
0.000359758    	-1.1579064e-03
0.00036019     	-1.3020533e-03
0.000360621    	-1.4423685e-03
0.000361052    	-1.5765842e-03
0.000361482    	-1.7035151e-03
0.00036191     	-1.8215621e-03
0.000362338    	-1.9274362e-03
0.000362765    	-2.0216420e-03
0.000363192    	-2.1029381e-03
0.000363619    	-2.1717619e-03
0.000364046    	-2.2263561e-03
0.000364472    	-2.2659122e-03
0.0003649      	-2.2907920e-03
0.000365328    	-2.3009772e-03
0.000365757    	-2.2952642e-03
0.000366187    	-2.2735655e-03
0.000366618    	-2.2369032e-03
0.000367049    	-2.1851950e-03
0.000367482    	-2.1186547e-03
0.000367915    	-2.0393600e-03
0.000368349    	-1.9513374e-03
0.000368784    	-1.8590801e-03
0.000369218    	-1.7653243e-03
0.000369652    	-1.6721101e-03
0.000370085    	-1.5809446e-03
0.000370517    	-1.4901981e-03
0.000370949    	-1.3961391e-03
0.000371379    	-1.2973348e-03
0.000371808    	-1.1904465e-03
0.000372237    	-1.0746666e-03
0.000372665    	-9.5279859e-04
0.000373091    	-8.2587608e-04
0.000373517    	-6.9592300e-04
0.000373943    	-5.6713423e-04
0.000374368    	-4.4404617e-04
0.000374794    	-3.3225619e-04
0.000375219    	-2.3460797e-04
0.000375646    	-1.5435862e-04
0.000376073    	-9.3261833e-05
0.000376501    	-5.2960906e-05
0.000376931    	-3.4258715e-05
0.000377361    	-3.7931420e-05
0.000377792    	-5.9946450e-05
0.000378224    	-9.9459191e-05
0.000378656    	-1.5026711e-04
0.000379089    	-2.1066084e-04
0.000379522    	-2.7424886e-04
0.000379955    	-3.3952780e-04
0.000380388    	-4.0440261e-04
0.00038082     	-4.6799594e-04
0.000381251    	-5.2890572e-04
0.000381682    	-5.8748129e-04
0.000382111    	-6.4173407e-04
0.000382541    	-6.9135184e-04
0.000382969    	-7.3628492e-04
0.000383396    	-7.7865304e-04
0.000383823    	-8.1757553e-04
0.000384249    	-8.5158081e-04
0.000384674    	-8.7998620e-04
0.000385098    	-9.0293890e-04
0.000385522    	-9.2069374e-04
0.000385947    	-9.3416319e-04
0.000386372    	-9.4285943e-04
0.000386797    	-9.4877303e-04
0.000387224    	-9.5508969e-04
0.000387651    	-9.6175968e-04
0.000388079    	-9.6896946e-04
0.000388509    	-9.7795195e-04
0.000388939    	-9.8754661e-04
0.00038937     	-9.9701293e-04
0.000389803    	-1.0040116e-03
0.000390235    	-1.0058404e-03
0.000390669    	-1.0029402e-03
0.000391102    	-9.9620829e-04
0.000391535    	-9.8755634e-04
0.000391968    	-9.8075427e-04
0.0003924      	-9.7862333e-04
0.000392832    	-9.8523070e-04
0.000393263    	-9.9719570e-04
0.000393694    	-1.0150494e-03
0.000394124    	-1.0347665e-03
0.000394554    	-1.0524466e-03
0.000394981    	-1.0654337e-03
0.000395407    	-1.0681039e-03
0.000395832    	-1.0581072e-03
0.000396256    	-1.0333398e-03
0.000396679    	-9.9461869e-04
0.000397103    	-9.4258084e-04
0.000397527    	-8.7878885e-04
0.000397953    	-8.0615651e-04
0.000398379    	-7.2977362e-04
0.000398808    	-6.5497120e-04
0.000399237    	-5.8858323e-04
0.000399668    	-5.3312652e-04
0.0004001      	-4.9611923e-04
0.000400534    	-4.7777076e-04
0.000400968    	-4.8015306e-04
0.000401403    	-5.0091891e-04
0.00040184     	-5.3634903e-04
0.000402276    	-5.8356192e-04
0.000402714    	-6.4087091e-04
0.000403151    	-7.0388206e-04
0.000403587    	-7.7118167e-04
0.000404023    	-8.3891179e-04
0.000404458    	-9.0521885e-04
0.000404892    	-9.6834301e-04
0.000405324    	-1.0265888e-03
0.000405756    	-1.0811365e-03
0.000406185    	-1.1312052e-03
0.000406613    	-1.1766169e-03
0.000407039    	-1.2143892e-03
0.000407463    	-1.2441526e-03
0.000407887    	-1.2640229e-03
0.00040831     	-1.2737297e-03
0.000408732    	-1.2729412e-03
0.000409155    	-1.2629851e-03
0.000409577    	-1.2433947e-03
0.00041        	-1.2145463e-03
0.000410424    	-1.1760928e-03
0.000410849    	-1.1260262e-03
0.000411274    	-1.0634120e-03
0.0004117      	-9.8848688e-04
0.000412126    	-9.0257755e-04
0.000412553    	-8.0853308e-04
0.000412979    	-7.0853649e-04