# Region type : patch cOutlet
# Faces  :     1172
# Area   :     4.4928320e-05
# Time         	sum(phi)
0              	0.0000000e+00
5.62517e-07    	6.5969328e-04
1.00486e-06    	8.0427249e-04
1.44172e-06    	8.2646980e-04
1.87835e-06    	8.2423471e-04
2.31864e-06    	8.2771539e-04
2.77704e-06    	8.3853734e-04
3.26432e-06    	8.4935505e-04
3.76282e-06    	8.5401527e-04
4.26106e-06    	8.5098315e-04
4.76173e-06    	8.4026127e-04
5.26405e-06    	8.2303386e-04
5.76286e-06    	8.0208325e-04
6.26046e-06    	7.8194102e-04
6.76084e-06    	7.6302186e-04
7.26547e-06    	7.4533104e-04
7.76906e-06    	7.2914350e-04
8.26759e-06    	7.1512858e-04
8.76244e-06    	7.0342269e-04
9.25495e-06    	6.9404021e-04
9.74585e-06    	6.8677033e-04
1.02355e-05    	6.8117755e-04
1.07232e-05    	6.7675579e-04
1.12085e-05    	6.7292816e-04
1.16911e-05    	6.6936060e-04
1.21704e-05    	6.6599747e-04
1.26454e-05    	6.6279572e-04
1.31158e-05    	6.5967483e-04
1.35844e-05    	6.5668210e-04
1.4053e-05     	6.5397637e-04
1.4523e-05     	6.5172624e-04
1.49951e-05    	6.5009453e-04
1.54694e-05    	6.4929813e-04
1.59461e-05    	6.4951930e-04
1.6426e-05     	6.5088745e-04
1.69088e-05    	6.5349284e-04
1.73938e-05    	6.5731406e-04
1.78806e-05    	6.6215701e-04
1.83691e-05    	6.6762814e-04
1.8859e-05     	6.7329130e-04
1.93503e-05    	6.7878671e-04
1.98425e-05    	6.8374870e-04
2.03343e-05    	6.8778539e-04
2.08255e-05    	6.9059381e-04
2.13163e-05    	6.9202925e-04
2.18069e-05    	6.9209726e-04
2.22975e-05    	6.9081253e-04
2.27878e-05    	6.8815464e-04
2.32776e-05    	6.8417523e-04
2.3767e-05     	6.7908706e-04
2.42553e-05    	6.7310360e-04
2.47418e-05    	6.6640741e-04
2.52258e-05    	6.5927611e-04
2.57078e-05    	6.5197169e-04
2.61882e-05    	6.4476786e-04
2.66679e-05    	6.3786127e-04
2.7148e-05     	6.3136535e-04
2.76289e-05    	6.2531860e-04
2.81103e-05    	6.1974068e-04
2.85919e-05    	6.1464166e-04
2.90744e-05    	6.0999851e-04
2.95579e-05    	6.0572194e-04
3.00424e-05    	6.0169674e-04
3.05275e-05    	5.9779971e-04
3.1013e-05     	5.9390120e-04
3.1499e-05     	5.8987078e-04
3.19853e-05    	5.8559047e-04
3.24722e-05    	5.8094455e-04
3.29594e-05    	5.7580822e-04
3.34468e-05    	5.7001090e-04
3.39344e-05    	5.6332320e-04
3.44215e-05    	5.5554254e-04
3.49076e-05    	5.4651054e-04
3.53922e-05    	5.3611465e-04
3.58746e-05    	5.2428536e-04
3.63544e-05    	5.1099508e-04
3.68325e-05    	4.9624464e-04
3.73099e-05    	4.8003004e-04
3.77878e-05    	4.6232177e-04
3.82684e-05    	4.4307296e-04
3.8753e-05     	4.2224408e-04
3.9241e-05     	3.9989038e-04
3.97269e-05    	3.7636797e-04
4.02107e-05    	3.5185477e-04
4.0693e-05     	3.2652151e-04
4.11743e-05    	3.0057532e-04
4.16553e-05    	2.7420224e-04
4.2136e-05     	2.4760384e-04
4.26165e-05    	2.2098384e-04
4.3097e-05     	1.9455802e-04
4.35777e-05    	1.6849258e-04
4.40589e-05    	1.4298470e-04
4.45408e-05    	1.1814020e-04
4.50233e-05    	9.4055432e-05
4.5506e-05     	7.0713836e-05
4.59884e-05    	4.7989309e-05
4.64704e-05    	2.4570387e-05
4.6952e-05     	1.9434451e-06
4.74331e-05    	-2.2115707e-05
4.79138e-05    	-4.8406584e-05
4.83941e-05    	-7.8709414e-05
4.88745e-05    	-1.0988800e-04
4.93557e-05    	-1.3927336e-04
4.98383e-05    	-1.6755695e-04
5.0322e-05     	-1.9403449e-04
5.08068e-05    	-2.2036697e-04
5.12922e-05    	-2.4630492e-04
5.17774e-05    	-2.7209954e-04
5.22621e-05    	-2.9753110e-04
5.27458e-05    	-3.2257325e-04
5.32284e-05    	-3.4716497e-04
5.37098e-05    	-3.7125841e-04
5.41902e-05    	-3.9481917e-04
5.46696e-05    	-4.1777508e-04
5.51482e-05    	-4.4005729e-04
5.56261e-05    	-4.6149268e-04
5.61034e-05    	-4.8189764e-04
5.65802e-05    	-5.0099977e-04
5.70565e-05    	-5.1852563e-04
5.75316e-05    	-5.3442997e-04
5.80056e-05    	-5.4892131e-04
5.84786e-05    	-5.6198098e-04
5.89507e-05    	-5.7367443e-04
5.94222e-05    	-5.8412581e-04
5.98929e-05    	-5.9348268e-04
6.03626e-05    	-6.0199523e-04
6.08312e-05    	-6.0955713e-04
6.1299e-05     	-6.1609635e-04
6.17664e-05    	-6.2145392e-04
6.22342e-05    	-6.2547175e-04
6.27035e-05    	-6.2800966e-04
6.31751e-05    	-6.2890828e-04
6.36489e-05    	-6.2801367e-04
6.41229e-05    	-6.2517529e-04
6.45953e-05    	-6.2027501e-04
6.50652e-05    	-6.1322630e-04
6.55326e-05    	-6.0396181e-04
6.5997e-05     	-5.9245944e-04
6.6459e-05     	-5.7877830e-04
6.69191e-05    	-5.6291209e-04
6.73783e-05    	-5.4479880e-04
6.78374e-05    	-5.2437269e-04
6.82972e-05    	-5.0155509e-04
6.87583e-05    	-4.7626509e-04
6.92211e-05    	-4.4845511e-04
6.96856e-05    	-4.1812545e-04
7.01513e-05    	-3.8540680e-04
7.06181e-05    	-3.5056797e-04
7.10858e-05    	-3.1391935e-04
7.15539e-05    	-2.7587690e-04
7.20226e-05    	-2.3702553e-04
7.24918e-05    	-1.9792253e-04
7.29617e-05    	-1.5857289e-04
7.34318e-05    	-1.1892710e-04
7.39023e-05    	-7.9515042e-05
7.43731e-05    	-4.0743259e-05
7.48438e-05    	-2.8059785e-06
7.53144e-05    	3.3902111e-05
7.57848e-05    	6.9012452e-05
7.62549e-05    	1.0234665e-04
7.67244e-05    	1.3381774e-04
7.71934e-05    	1.6345029e-04
7.76619e-05    	1.9126234e-04
7.81299e-05    	2.1725428e-04
7.8597e-05     	2.4139299e-04
7.9063e-05     	2.6371099e-04
7.95277e-05    	2.8415786e-04
7.99912e-05    	3.0237734e-04
8.04544e-05    	3.1859179e-04
8.09181e-05    	3.3277613e-04
8.13829e-05    	3.4527809e-04
8.1849e-05     	3.5625339e-04
8.23163e-05    	3.6580758e-04
8.27849e-05    	3.7403038e-04
8.32549e-05    	3.8106095e-04
8.37264e-05    	3.8702067e-04
8.41995e-05    	3.9201459e-04
8.46742e-05    	3.9618878e-04
8.51507e-05    	3.9962724e-04
8.56287e-05    	4.0243600e-04
8.61082e-05    	4.0467251e-04
8.65881e-05    	4.0635900e-04
8.70678e-05    	4.0758935e-04
8.75474e-05    	4.0832545e-04
8.80273e-05    	4.0868490e-04
8.85079e-05    	4.0865516e-04
8.8989e-05     	4.0829591e-04
8.94696e-05    	4.0760110e-04
8.99499e-05    	4.0658997e-04
9.04303e-05    	4.0528940e-04
9.09111e-05    	4.0368543e-04
9.13927e-05    	4.0179890e-04
9.18752e-05    	3.9959317e-04
9.23592e-05    	3.9710712e-04
9.28443e-05    	3.9430991e-04
9.3329e-05     	3.9126562e-04
9.38132e-05    	3.8796013e-04
9.42958e-05    	3.8437037e-04
9.47756e-05    	3.8042290e-04
9.52521e-05    	3.7612063e-04
9.5725e-05     	3.7142018e-04
9.61947e-05    	3.6628432e-04
9.66624e-05    	3.6060978e-04
9.71304e-05    	3.5429102e-04
9.75995e-05    	3.4722986e-04
9.80709e-05    	3.3933429e-04
9.85453e-05    	3.3051674e-04
9.90222e-05    	3.2072936e-04
9.94992e-05    	3.1000552e-04
9.99748e-05    	2.9842727e-04
0.00010045     	2.8607675e-04
0.000100924    	2.7305473e-04
0.0001014      	2.5950219e-04
0.000101876    	2.4560817e-04
0.000102354    	2.3156613e-04
0.000102834    	2.1759009e-04
0.000103314    	2.0387988e-04
0.000103793    	1.9065664e-04
0.000104271    	1.7807622e-04
0.000104747    	1.6630517e-04
0.000105221    	1.5545746e-04
0.000105694    	1.4560872e-04
0.000106166    	1.3678681e-04
0.000106638    	1.2898797e-04
0.00010711     	1.2220232e-04
0.000107583    	1.1648305e-04
0.000108056    	1.1167252e-04
0.000108531    	1.0758890e-04
0.000109006    	1.0417121e-04
0.000109483    	1.0149619e-04
0.000109962    	9.9603413e-05
0.000110442    	9.8497086e-05
0.000110925    	9.8189015e-05
0.000111408    	9.8594370e-05
0.000111891    	9.9631322e-05
0.000112371    	1.0127225e-04
0.000112848    	1.0339935e-04
0.000113324    	1.0586787e-04
0.0001138      	1.0854930e-04
0.000114276    	1.1130819e-04
0.000114752    	1.1397925e-04
0.000115229    	1.1641411e-04
0.000115707    	1.1847988e-04
0.000116183    	1.2006193e-04
0.000116658    	1.2107929e-04
0.000117133    	1.2147488e-04
0.000117609    	1.2120009e-04
0.000118086    	1.2021636e-04
0.000118563    	1.1848718e-04
0.000119038    	1.1596310e-04
0.000119509    	1.1261270e-04
0.00011998     	1.0842478e-04
0.00012045     	1.0331665e-04
0.00012092     	9.7290998e-05
0.00012139     	9.0476379e-05
0.00012186     	8.2843050e-05
0.000122331    	7.4631598e-05
0.000122801    	6.6051933e-05
0.000123273    	5.7291680e-05
0.000123745    	4.8530428e-05
0.000124218    	3.9901597e-05
0.000124692    	3.1498433e-05
0.000125167    	2.3414964e-05
0.000125645    	1.5719918e-05
0.000126121    	8.5398856e-06
0.000126587    	2.0767622e-06
0.000127044    	-3.6376956e-06
