# Region type : patch inlet
# Faces  :     460
# Area   :     7.5346137e-05
# Time         	average(U)	average(p)	average(T)	average(rho)
0              	(0.0000000e+00 0.0000000e+00 0.0000000e+00)	1.0000000e+05	2.9400000e+02	1.1822680e+00
4.57971e-07    	(2.5406900e-03 3.7298519e-08 -1.9773150e-03)	1.0000916e+05	2.9400000e+02	1.1823763e+00
8.33602e-07    	(8.5213175e-03 1.0429400e-06 -6.6610386e-03)	1.0001667e+05	2.9400000e+02	1.1824651e+00
1.20923e-06    	(1.6449309e-02 2.3332329e-06 -1.2904073e-02)	1.0002418e+05	2.9400000e+02	1.1825539e+00
1.58486e-06    	(2.5668271e-02 3.1444390e-06 -2.0188620e-02)	1.0003170e+05	2.9400000e+02	1.1826427e+00
1.96049e-06    	(3.5685706e-02 3.4021224e-06 -2.8107199e-02)	1.0003921e+05	2.9400000e+02	1.1827316e+00
2.33612e-06    	(4.6207586e-02 3.1968109e-06 -3.6411567e-02)	1.0004672e+05	2.9400000e+02	1.1828204e+00
2.71175e-06    	(5.7048590e-02 2.7173511e-06 -4.4945030e-02)	1.0005423e+05	2.9399999e+02	1.1829092e+00
3.08738e-06    	(6.8100655e-02 2.1086942e-06 -5.3614118e-02)	1.0006174e+05	2.9399999e+02	1.1829979e+00
3.46301e-06    	(7.9292097e-02 1.4960749e-06 -6.2359182e-02)	1.0006925e+05	2.9399999e+02	1.1830867e+00
3.83864e-06    	(9.0583851e-02 9.8217763e-07 -7.1155128e-02)	1.0007676e+05	2.9399999e+02	1.1831755e+00
4.21427e-06    	(1.0194499e-01 5.3240318e-07 -7.9983386e-02)	1.0008426e+05	2.9399998e+02	1.1832643e+00
4.5899e-06     	(1.1334895e-01 1.8096462e-07 -8.8826230e-02)	1.0009177e+05	2.9399998e+02	1.1833531e+00
4.96553e-06    	(1.2478446e-01 -1.2559842e-07 -9.7679490e-02)	1.0009928e+05	2.9399997e+02	1.1834419e+00
5.34117e-06    	(1.3623880e-01 -3.6152876e-07 -1.0653709e-01)	1.0010678e+05	2.9399997e+02	1.1835306e+00
5.7168e-06     	(1.4771982e-01 -7.5084385e-08 -1.1540356e-01)	1.0011429e+05	2.9399996e+02	1.1836194e+00
6.09243e-06    	(1.5924030e-01 3.8417713e-07 -1.2429090e-01)	1.0012179e+05	2.9399995e+02	1.1837081e+00
6.46806e-06    	(1.7081224e-01 8.6238825e-07 -1.3320842e-01)	1.0012930e+05	2.9399995e+02	1.1837969e+00
6.84369e-06    	(1.8246487e-01 1.3295800e-06 -1.4217870e-01)	1.0013680e+05	2.9399994e+02	1.1838856e+00
7.21932e-06    	(1.9421804e-01 1.7648179e-06 -1.5121888e-01)	1.0014431e+05	2.9399993e+02	1.1839744e+00
7.59495e-06    	(2.0608856e-01 2.1868915e-06 -1.6034362e-01)	1.0015181e+05	2.9399992e+02	1.1840631e+00
7.97058e-06    	(2.1809566e-01 2.5997568e-06 -1.6956935e-01)	1.0015931e+05	2.9399991e+02	1.1841518e+00
8.34621e-06    	(2.3025726e-01 3.0188751e-06 -1.7891179e-01)	1.0016681e+05	2.9399990e+02	1.1842405e+00
8.72184e-06    	(2.4258809e-01 3.4295770e-06 -1.8838467e-01)	1.0017431e+05	2.9399989e+02	1.1843292e+00
9.09747e-06    	(2.5509736e-01 3.8162494e-06 -1.9799604e-01)	1.0018181e+05	2.9399988e+02	1.1844179e+00
9.4731e-06     	(2.6779126e-01 4.1846710e-06 -2.0775162e-01)	1.0018931e+05	2.9399987e+02	1.1845066e+00
9.84873e-06    	(2.8067700e-01 4.5151692e-06 -2.1765772e-01)	1.0019680e+05	2.9399986e+02	1.1845953e+00
1.02244e-05    	(2.9375749e-01 4.7902580e-06 -2.2771696e-01)	1.0020430e+05	2.9399984e+02	1.1846840e+00
1.06e-05       	(3.0703763e-01 5.0313749e-06 -2.3793371e-01)	1.0021179e+05	2.9399983e+02	1.1847727e+00
1.09756e-05    	(3.2051791e-01 5.2277193e-06 -2.4830801e-01)	1.0021929e+05	2.9399981e+02	1.1848613e+00
1.13512e-05    	(3.3419976e-01 5.3684361e-06 -2.5884068e-01)	1.0022678e+05	2.9399980e+02	1.1849500e+00
1.17269e-05    	(3.4808389e-01 5.4765453e-06 -2.6953341e-01)	1.0023427e+05	2.9399978e+02	1.1850386e+00
1.21025e-05    	(3.6216937e-01 5.5254358e-06 -2.8038470e-01)	1.0024176e+05	2.9399976e+02	1.1851273e+00
1.24781e-05    	(3.7645332e-01 5.4915679e-06 -2.9139304e-01)	1.0024925e+05	2.9399974e+02	1.1852159e+00
1.28538e-05    	(3.9093174e-01 5.4111867e-06 -3.0255600e-01)	1.0025674e+05	2.9399972e+02	1.1853045e+00
1.32294e-05    	(4.0560449e-01 5.2558980e-06 -3.1387327e-01)	1.0026423e+05	2.9399970e+02	1.1853931e+00
1.3605e-05     	(4.2047525e-01 5.0103674e-06 -3.2534784e-01)	1.0027172e+05	2.9399968e+02	1.1854817e+00
1.39807e-05    	(4.3554951e-01 4.6870427e-06 -3.3698391e-01)	1.0027920e+05	2.9399966e+02	1.1855703e+00
1.43563e-05    	(4.5083001e-01 4.2650069e-06 -3.4878296e-01)	1.0028669e+05	2.9399963e+02	1.1856589e+00
1.47319e-05    	(4.6632007e-01 3.7447794e-06 -3.6074609e-01)	1.0029417e+05	2.9399961e+02	1.1857475e+00
1.51076e-05    	(4.8201975e-01 3.1417684e-06 -3.7287485e-01)	1.0030165e+05	2.9399958e+02	1.1858360e+00
1.54832e-05    	(4.9792731e-01 2.4535565e-06 -3.8517050e-01)	1.0030913e+05	2.9399955e+02	1.1859246e+00
1.58588e-05    	(5.1403752e-01 1.7501001e-06 -3.9762860e-01)	1.0031661e+05	2.9399953e+02	1.1860131e+00
1.62344e-05    	(5.3035137e-01 1.0211518e-06 -4.1025134e-01)	1.0032409e+05	2.9399950e+02	1.1861016e+00
1.66101e-05    	(5.4687143e-01 2.6067050e-07 -4.2304073e-01)	1.0033156e+05	2.9399947e+02	1.1861901e+00
1.69857e-05    	(5.6360030e-01 -5.2333021e-07 -4.3599788e-01)	1.0033904e+05	2.9399943e+02	1.1862786e+00
1.73613e-05    	(5.8054114e-01 -1.3039816e-06 -4.4912579e-01)	1.0034651e+05	2.9399940e+02	1.1863671e+00
1.7737e-05     	(5.9769022e-01 -2.0849006e-06 -4.6242108e-01)	1.0035398e+05	2.9399937e+02	1.1864556e+00
1.81126e-05    	(6.1504411e-01 -2.8492622e-06 -4.7588085e-01)	1.0036145e+05	2.9399933e+02	1.1865440e+00
1.84882e-05    	(6.3260874e-01 -3.6273399e-06 -4.8950837e-01)	1.0036892e+05	2.9399929e+02	1.1866325e+00
1.88639e-05    	(6.5038719e-01 -4.4170582e-06 -5.0330515e-01)	1.0037639e+05	2.9399926e+02	1.1867209e+00
1.92395e-05    	(6.6837688e-01 -5.1975303e-06 -5.1726971e-01)	1.0038385e+05	2.9399922e+02	1.1868093e+00
1.96151e-05    	(6.8657888e-01 -5.9432403e-06 -5.3140285e-01)	1.0039132e+05	2.9399917e+02	1.1868977e+00
1.99907e-05    	(7.0499344e-01 -6.6383248e-06 -5.4570470e-01)	1.0039878e+05	2.9399913e+02	1.1869861e+00
2.03664e-05    	(7.2361809e-01 -7.5183646e-06 -5.6017112e-01)	1.0040624e+05	2.9399909e+02	1.1870745e+00
2.0742e-05     	(7.4244621e-01 -8.5367918e-06 -5.7479860e-01)	1.0041369e+05	2.9399904e+02	1.1871629e+00
2.11176e-05    	(7.6146962e-01 -9.4709406e-06 -5.8958410e-01)	1.0042115e+05	2.9399899e+02	1.1872512e+00
2.14933e-05    	(7.8068769e-01 -1.0325047e-05 -6.0452512e-01)	1.0042860e+05	2.9399895e+02	1.1873395e+00
2.18689e-05    	(8.0009819e-01 -1.1160497e-05 -6.1962152e-01)	1.0043606e+05	2.9399890e+02	1.1874278e+00
2.22445e-05    	(8.1969412e-01 -1.1935934e-05 -6.3486829e-01)	1.0044351e+05	2.9399884e+02	1.1875161e+00
2.26202e-05    	(8.3946874e-01 -1.2590541e-05 -6.5025834e-01)	1.0045096e+05	2.9399879e+02	1.1876044e+00
2.29958e-05    	(8.5942088e-01 -1.3124740e-05 -6.6579222e-01)	1.0045840e+05	2.9399873e+02	1.1876927e+00
2.33714e-05    	(8.7954828e-01 -1.3526060e-05 -6.8146999e-01)	1.0046585e+05	2.9399868e+02	1.1877809e+00
2.3747e-05     	(8.9985464e-01 -1.3800027e-05 -6.9729707e-01)	1.0047329e+05	2.9399862e+02	1.1878691e+00
2.41227e-05    	(9.2032791e-01 -1.3965035e-05 -7.1326250e-01)	1.0048073e+05	2.9399856e+02	1.1879573e+00
2.44983e-05    	(9.4096032e-01 -1.4008298e-05 -7.2936114e-01)	1.0048817e+05	2.9399850e+02	1.1880455e+00
2.48739e-05    	(9.6174061e-01 -1.3998233e-05 -7.4557906e-01)	1.0049560e+05	2.9399843e+02	1.1881337e+00
2.52496e-05    	(9.8265797e-01 -1.3958823e-05 -7.6189927e-01)	1.0050304e+05	2.9399837e+02	1.1882219e+00
2.56252e-05    	(1.0037001e+00 -1.3831810e-05 -7.7831175e-01)	1.0051047e+05	2.9399830e+02	1.1883100e+00
2.60008e-05    	(1.0248579e+00 -1.3596365e-05 -7.9481374e-01)	1.0051790e+05	2.9399823e+02	1.1883981e+00
2.63765e-05    	(1.0461241e+00 -1.3248780e-05 -8.1140426e-01)	1.0052533e+05	2.9399816e+02	1.1884862e+00
2.67521e-05    	(1.0674920e+00 -1.2725257e-05 -8.2808233e-01)	1.0053276e+05	2.9399809e+02	1.1885743e+00
2.71277e-05    	(1.0889531e+00 -1.2010804e-05 -8.4484140e-01)	1.0054018e+05	2.9399802e+02	1.1886624e+00
2.75034e-05    	(1.1104920e+00 -1.1186779e-05 -8.6166442e-01)	1.0054760e+05	2.9399794e+02	1.1887505e+00
2.7879e-05     	(1.1320964e+00 -1.0315419e-05 -8.7853748e-01)	1.0055502e+05	2.9399786e+02	1.1888385e+00
2.82546e-05    	(1.1537590e+00 -9.3905296e-06 -8.9545264e-01)	1.0056244e+05	2.9399779e+02	1.1889265e+00
2.86302e-05    	(1.1754752e+00 -8.3460180e-06 -9.1240714e-01)	1.0056986e+05	2.9399771e+02	1.1890145e+00
2.90059e-05    	(1.1972369e+00 -7.0946886e-06 -9.2939917e-01)	1.0057727e+05	2.9399762e+02	1.1891025e+00
2.93815e-05    	(1.2190399e+00 -5.6369991e-06 -9.4643102e-01)	1.0058469e+05	2.9399754e+02	1.1891905e+00
2.97571e-05    	(1.2408810e+00 -4.0395467e-06 -9.6350002e-01)	1.0059210e+05	2.9399746e+02	1.1892785e+00
3.01328e-05    	(1.2627506e+00 -2.2868312e-06 -9.8059570e-01)	1.0059951e+05	2.9399737e+02	1.1893664e+00
3.05084e-05    	(1.2846435e+00 -3.5936128e-07 -9.9771066e-01)	1.0060691e+05	2.9399728e+02	1.1894543e+00
3.0884e-05     	(1.3065498e+00 1.9251123e-06 -1.0148337e+00)	1.0061432e+05	2.9399719e+02	1.1895422e+00
3.12597e-05    	(1.3284742e+00 4.4187804e-06 -1.0319730e+00)	1.0062172e+05	2.9399710e+02	1.1896301e+00
3.16353e-05    	(1.3504245e+00 7.1414396e-06 -1.0491385e+00)	1.0062912e+05	2.9399701e+02	1.1897180e+00
3.20109e-05    	(1.3723920e+00 9.8111115e-06 -1.0663270e+00)	1.0063652e+05	2.9399691e+02	1.1898059e+00
3.23865e-05    	(1.3943606e+00 1.2607640e-05 -1.0835230e+00)	1.0064392e+05	2.9399682e+02	1.1898937e+00
3.27622e-05    	(1.4163340e+00 1.5634111e-05 -1.1007275e+00)	1.0065131e+05	2.9399672e+02	1.1899816e+00
3.31378e-05    	(1.4383105e+00 1.8840023e-05 -1.1179372e+00)	1.0065871e+05	2.9399662e+02	1.1900694e+00
3.35134e-05    	(1.4602939e+00 2.2148887e-05 -1.1351545e+00)	1.0066610e+05	2.9399652e+02	1.1901572e+00
3.38891e-05    	(1.4822908e+00 2.5540643e-05 -1.1523863e+00)	1.0067349e+05	2.9399642e+02	1.1902450e+00
3.42647e-05    	(1.5043119e+00 2.9042636e-05 -1.1696463e+00)	1.0068088e+05	2.9399632e+02	1.1903327e+00
3.46403e-05    	(1.5263646e+00 3.2663978e-05 -1.1869415e+00)	1.0068827e+05	2.9399621e+02	1.1904205e+00
3.5016e-05     	(1.5484573e+00 3.6476420e-05 -1.2042765e+00)	1.0069565e+05	2.9399611e+02	1.1905082e+00
3.53916e-05    	(1.5705973e+00 4.0546656e-05 -1.2216552e+00)	1.0070303e+05	2.9399600e+02	1.1905960e+00
3.57672e-05    	(1.5927809e+00 4.4907819e-05 -1.2390738e+00)	1.0071041e+05	2.9399589e+02	1.1906837e+00
3.61428e-05    	(1.6150094e+00 4.9701640e-05 -1.2565351e+00)	1.0071779e+05	2.9399578e+02	1.1907713e+00
3.65185e-05    	(1.6372855e+00 5.4885425e-05 -1.2740377e+00)	1.0072517e+05	2.9399566e+02	1.1908590e+00
3.68941e-05    	(1.6596013e+00 6.0152586e-05 -1.2915758e+00)	1.0073254e+05	2.9399555e+02	1.1909467e+00
3.72697e-05    	(1.6819704e+00 6.5521990e-05 -1.3091634e+00)	1.0073992e+05	2.9399543e+02	1.1910343e+00
3.76454e-05    	(1.7044085e+00 7.1077664e-05 -1.3268164e+00)	1.0074729e+05	2.9399531e+02	1.1911219e+00
3.8021e-05     	(1.7269193e+00 7.6913259e-05 -1.3445397e+00)	1.0075465e+05	2.9399519e+02	1.1912095e+00
3.83966e-05    	(1.7495011e+00 8.3042330e-05 -1.3623315e+00)	1.0076202e+05	2.9399507e+02	1.1912971e+00
3.87723e-05    	(1.7721534e+00 8.9436880e-05 -1.3801908e+00)	1.0076938e+05	2.9399495e+02	1.1913846e+00
3.91479e-05    	(1.7948768e+00 9.6050236e-05 -1.3981170e+00)	1.0077674e+05	2.9399482e+02	1.1914722e+00
3.95235e-05    	(1.8176733e+00 1.0277716e-04 -1.4161107e+00)	1.0078410e+05	2.9399469e+02	1.1915597e+00
3.98992e-05    	(1.8405428e+00 1.0947670e-04 -1.4341666e+00)	1.0079146e+05	2.9399456e+02	1.1916472e+00
4.02748e-05    	(1.8634866e+00 1.1613484e-04 -1.4522837e+00)	1.0079881e+05	2.9399443e+02	1.1917347e+00
4.06504e-05    	(1.8865047e+00 1.2285294e-04 -1.4704619e+00)	1.0080616e+05	2.9399430e+02	1.1918221e+00
4.1026e-05     	(1.9095971e+00 1.2975561e-04 -1.4887046e+00)	1.0081351e+05	2.9399416e+02	1.1919096e+00
4.14017e-05    	(1.9327757e+00 1.3693785e-04 -1.5070284e+00)	1.0082086e+05	2.9399402e+02	1.1919970e+00
4.17773e-05    	(1.9560554e+00 1.4440998e-04 -1.5254504e+00)	1.0082820e+05	2.9399388e+02	1.1920844e+00
4.21529e-05    	(1.9794418e+00 1.5212760e-04 -1.5439735e+00)	1.0083554e+05	2.9399374e+02	1.1921718e+00
4.25286e-05    	(2.0029286e+00 1.6001152e-04 -1.5625904e+00)	1.0084288e+05	2.9399360e+02	1.1922591e+00
4.29042e-05    	(2.0265120e+00 1.6796746e-04 -1.5812909e+00)	1.0085022e+05	2.9399345e+02	1.1923464e+00
4.32798e-05    	(2.0501865e+00 1.7591053e-04 -1.6000620e+00)	1.0085755e+05	2.9399330e+02	1.1924337e+00
4.36555e-05    	(2.0739387e+00 1.8379499e-04 -1.6188916e+00)	1.0086488e+05	2.9399315e+02	1.1925210e+00
4.40311e-05    	(2.0977584e+00 1.9163985e-04 -1.6377700e+00)	1.0087221e+05	2.9399300e+02	1.1926083e+00
4.44067e-05    	(2.1216284e+00 1.9948448e-04 -1.6566850e+00)	1.0087954e+05	2.9399284e+02	1.1926955e+00
4.47823e-05    	(2.1455435e+00 2.0743452e-04 -1.6756379e+00)	1.0088686e+05	2.9399268e+02	1.1927827e+00
4.5158e-05     	(2.1695167e+00 2.1569010e-04 -1.6946457e+00)	1.0089418e+05	2.9399252e+02	1.1928699e+00
4.55336e-05    	(2.1935698e+00 2.2434903e-04 -1.7137321e+00)	1.0090150e+05	2.9399236e+02	1.1929571e+00
4.59092e-05    	(2.2177095e+00 2.3325483e-04 -1.7329029e+00)	1.0090881e+05	2.9399220e+02	1.1930443e+00
4.62849e-05    	(2.2419331e+00 2.4230341e-04 -1.7521483e+00)	1.0091613e+05	2.9399203e+02	1.1931314e+00
4.66605e-05    	(2.2662365e+00 2.5140510e-04 -1.7714557e+00)	1.0092344e+05	2.9399187e+02	1.1932185e+00
4.70361e-05    	(2.2905962e+00 2.6028538e-04 -1.7908054e+00)	1.0093074e+05	2.9399170e+02	1.1933056e+00
4.74118e-05    	(2.3150070e+00 2.6891214e-04 -1.8101963e+00)	1.0093805e+05	2.9399152e+02	1.1933927e+00
4.77874e-05    	(2.3394813e+00 2.7745282e-04 -1.8296408e+00)	1.0094535e+05	2.9399135e+02	1.1934797e+00
4.8163e-05     	(2.3640373e+00 2.8612623e-04 -1.8491597e+00)	1.0095265e+05	2.9399117e+02	1.1935667e+00
4.85386e-05    	(2.3886855e+00 2.9510041e-04 -1.8687677e+00)	1.0095995e+05	2.9399099e+02	1.1936537e+00
4.89143e-05    	(2.4134242e+00 3.0434344e-04 -1.8884625e+00)	1.0096724e+05	2.9399081e+02	1.1937407e+00
4.92899e-05    	(2.4382403e+00 3.1362798e-04 -1.9082280e+00)	1.0097453e+05	2.9399063e+02	1.1938276e+00
4.96655e-05    	(2.4631117e+00 3.2270296e-04 -1.9280356e+00)	1.0098182e+05	2.9399044e+02	1.1939145e+00
5.00412e-05    	(2.4880114e+00 3.3142226e-04 -1.9478545e+00)	1.0098910e+05	2.9399025e+02	1.1940014e+00
5.04168e-05    	(2.5129278e+00 3.3973866e-04 -1.9676740e+00)	1.0099639e+05	2.9399006e+02	1.1940883e+00
5.07924e-05    	(2.5378712e+00 3.4772418e-04 -1.9875059e+00)	1.0100367e+05	2.9398987e+02	1.1941752e+00
5.11681e-05    	(2.5628556e+00 3.5549144e-04 -2.0073679e+00)	1.0101094e+05	2.9398967e+02	1.1942620e+00
5.15437e-05    	(2.5879003e+00 3.6328090e-04 -2.0272799e+00)	1.0101822e+05	2.9398948e+02	1.1943488e+00
5.19193e-05    	(2.6130382e+00 3.7135126e-04 -2.0472710e+00)	1.0102549e+05	2.9398928e+02	1.1944356e+00
5.2295e-05     	(2.6382670e+00 3.7980483e-04 -2.0673436e+00)	1.0103276e+05	2.9398908e+02	1.1945224e+00
5.26706e-05    	(2.6635744e+00 3.8844848e-04 -2.0874880e+00)	1.0104003e+05	2.9398887e+02	1.1946091e+00
5.30462e-05    	(2.6889449e+00 3.9678007e-04 -2.1076873e+00)	1.0104729e+05	2.9398867e+02	1.1946958e+00
5.34218e-05    	(2.7143873e+00 4.0426615e-04 -2.1279486e+00)	1.0105455e+05	2.9398846e+02	1.1947825e+00
5.37975e-05    	(2.7398917e+00 4.1116112e-04 -2.1482612e+00)	1.0106181e+05	2.9398825e+02	1.1948692e+00
5.41731e-05    	(2.7654541e+00 4.1832607e-04 -2.1686151e+00)	1.0106906e+05	2.9398803e+02	1.1949558e+00
5.45487e-05    	(2.7910661e+00 4.2583898e-04 -2.1890033e+00)	1.0107631e+05	2.9398782e+02	1.1950424e+00
5.49244e-05    	(2.8167170e+00 4.3315512e-04 -2.2094165e+00)	1.0108356e+05	2.9398760e+02	1.1951290e+00
5.53e-05       	(2.8424207e+00 4.4091836e-04 -2.2298660e+00)	1.0109081e+05	2.9398738e+02	1.1952156e+00
5.56756e-05    	(2.8681755e+00 4.4864976e-04 -2.2503543e+00)	1.0109805e+05	2.9398716e+02	1.1953021e+00
5.60513e-05    	(2.8939702e+00 4.5620037e-04 -2.2708753e+00)	1.0110529e+05	2.9398693e+02	1.1953887e+00
5.64269e-05    	(2.9198103e+00 4.6392529e-04 -2.2914353e+00)	1.0111253e+05	2.9398670e+02	1.1954752e+00
5.68025e-05    	(2.9456912e+00 4.7176672e-04 -2.3120234e+00)	1.0111977e+05	2.9398647e+02	1.1955616e+00
5.71781e-05    	(2.9715905e+00 4.7970047e-04 -2.3326084e+00)	1.0112700e+05	2.9398624e+02	1.1956481e+00
5.75538e-05    	(2.9974935e+00 4.8749792e-04 -2.3531693e+00)	1.0113423e+05	2.9398601e+02	1.1957345e+00
5.79294e-05    	(3.0234340e+00 4.9476912e-04 -2.3737393e+00)	1.0114146e+05	2.9398577e+02	1.1958210e+00
5.8305e-05     	(3.0494725e+00 5.0114912e-04 -2.3943827e+00)	1.0114868e+05	2.9398554e+02	1.1959073e+00
5.86807e-05    	(3.0756040e+00 5.0653370e-04 -2.4151097e+00)	1.0115590e+05	2.9398529e+02	1.1959937e+00
5.90563e-05    	(3.1018264e+00 5.1113073e-04 -2.4359323e+00)	1.0116312e+05	2.9398505e+02	1.1960800e+00
5.94319e-05    	(3.1281361e+00 5.1558707e-04 -2.4568471e+00)	1.0117033e+05	2.9398480e+02	1.1961663e+00
5.98076e-05    	(3.1545061e+00 5.2065942e-04 -2.4778255e+00)	1.0117755e+05	2.9398456e+02	1.1962526e+00
6.01832e-05    	(3.1809179e+00 5.2611255e-04 -2.4988446e+00)	1.0118475e+05	2.9398430e+02	1.1963389e+00
6.05588e-05    	(3.2073426e+00 5.3209510e-04 -2.5198740e+00)	1.0119196e+05	2.9398405e+02	1.1964251e+00
6.09344e-05    	(3.2337784e+00 5.3796662e-04 -2.5409118e+00)	1.0119916e+05	2.9398379e+02	1.1965113e+00
6.13101e-05    	(3.2602301e+00 5.4300995e-04 -2.5619678e+00)	1.0120636e+05	2.9398354e+02	1.1965975e+00
6.16857e-05    	(3.2866981e+00 5.4693136e-04 -2.5830455e+00)	1.0121356e+05	2.9398328e+02	1.1966836e+00
6.20613e-05    	(3.3131932e+00 5.5005802e-04 -2.6041562e+00)	1.0122076e+05	2.9398301e+02	1.1967698e+00
6.2437e-05     	(3.3397293e+00 5.5289099e-04 -2.6253115e+00)	1.0122795e+05	2.9398275e+02	1.1968559e+00
6.28126e-05    	(3.3662991e+00 5.5570983e-04 -2.6465048e+00)	1.0123514e+05	2.9398248e+02	1.1969420e+00
6.31882e-05    	(3.3928995e+00 5.5854656e-04 -2.6677320e+00)	1.0124232e+05	2.9398221e+02	1.1970280e+00
6.35639e-05    	(3.4195741e+00 5.6137177e-04 -2.6890354e+00)	1.0124950e+05	2.9398194e+02	1.1971140e+00
6.39395e-05    	(3.4463576e+00 5.6416885e-04 -2.7104538e+00)	1.0125668e+05	2.9398166e+02	1.1972000e+00
6.43151e-05    	(3.4732192e+00 5.6659774e-04 -2.7319584e+00)	1.0126386e+05	2.9398139e+02	1.1972860e+00
6.46908e-05    	(3.5001220e+00 5.6969327e-04 -2.7535027e+00)	1.0127103e+05	2.9398111e+02	1.1973720e+00
6.50664e-05    	(3.5270015e+00 5.7377351e-04 -2.7750143e+00)	1.0127820e+05	2.9398082e+02	1.1974579e+00
6.5442e-05     	(3.5538033e+00 5.7860012e-04 -2.7964380e+00)	1.0128537e+05	2.9398054e+02	1.1975438e+00
6.58176e-05    	(3.5805125e+00 5.8370904e-04 -2.8177635e+00)	1.0129254e+05	2.9398025e+02	1.1976297e+00
6.61933e-05    	(3.6071696e+00 5.8809314e-04 -2.8390506e+00)	1.0129971e+05	2.9397997e+02	1.1977156e+00
6.65689e-05    	(3.6338755e+00 5.9061617e-04 -2.8604006e+00)	1.0130687e+05	2.9397968e+02	1.1978015e+00
6.69445e-05    	(3.6606446e+00 5.9149681e-04 -2.8818548e+00)	1.0131403e+05	2.9397939e+02	1.1978873e+00
6.73202e-05    	(3.6874721e+00 5.9145113e-04 -2.9033844e+00)	1.0132118e+05	2.9397909e+02	1.1979731e+00
6.76958e-05    	(3.7143717e+00 5.9214345e-04 -2.9249606e+00)	1.0132834e+05	2.9397880e+02	1.1980589e+00
6.80714e-05    	(3.7413458e+00 5.9441943e-04 -2.9465573e+00)	1.0133549e+05	2.9397850e+02	1.1981447e+00
6.84471e-05    	(3.7683779e+00 5.9741717e-04 -2.9681663e+00)	1.0134263e+05	2.9397820e+02	1.1982304e+00
6.88227e-05    	(3.7953596e+00 6.0084192e-04 -2.9897260e+00)	1.0134978e+05	2.9397789e+02	1.1983161e+00
6.91983e-05    	(3.8222877e+00 6.0504566e-04 -3.0112706e+00)	1.0135692e+05	2.9397759e+02	1.1984018e+00
6.95739e-05    	(3.8492027e+00 6.0895652e-04 -3.0328650e+00)	1.0136406e+05	2.9397728e+02	1.1984875e+00
6.99496e-05    	(3.8760856e+00 6.1267439e-04 -3.0544769e+00)	1.0137120e+05	2.9397697e+02	1.1985731e+00
7.03252e-05    	(3.9029507e+00 6.1672987e-04 -3.0760904e+00)	1.0137834e+05	2.9397667e+02	1.1986588e+00
7.07008e-05    	(3.9298241e+00 6.2109530e-04 -3.0976913e+00)	1.0138547e+05	2.9397635e+02	1.1987444e+00
7.10765e-05    	(3.9567563e+00 6.2511308e-04 -3.1193075e+00)	1.0139260e+05	2.9397604e+02	1.1988300e+00
7.14521e-05    	(3.9837842e+00 6.2787816e-04 -3.1409891e+00)	1.0139973e+05	2.9397572e+02	1.1989156e+00
7.18277e-05    	(4.0108497e+00 6.2886557e-04 -3.1626876e+00)	1.0140686e+05	2.9397540e+02	1.1990011e+00
7.22034e-05    	(4.0379479e+00 6.2859236e-04 -3.1844390e+00)	1.0141398e+05	2.9397508e+02	1.1990866e+00
7.2579e-05     	(4.0650273e+00 6.2938338e-04 -3.2061971e+00)	1.0142110e+05	2.9397476e+02	1.1991721e+00
7.29546e-05    	(4.0920185e+00 6.3107844e-04 -3.2278845e+00)	1.0142822e+05	2.9397443e+02	1.1992576e+00
7.33302e-05    	(4.1189292e+00 6.3377386e-04 -3.2495056e+00)	1.0143533e+05	2.9397411e+02	1.1993431e+00
7.37059e-05    	(4.1458418e+00 6.3825280e-04 -3.2711303e+00)	1.0144245e+05	2.9397378e+02	1.1994286e+00
7.40815e-05    	(4.1728283e+00 6.4419621e-04 -3.2928325e+00)	1.0144956e+05	2.9397345e+02	1.1995140e+00
7.44571e-05    	(4.1999343e+00 6.5023463e-04 -3.3146541e+00)	1.0145667e+05	2.9397312e+02	1.1995994e+00
7.48328e-05    	(4.2272480e+00 6.5487629e-04 -3.3366898e+00)	1.0146378e+05	2.9397278e+02	1.1996848e+00
7.52084e-05    	(4.2546910e+00 6.5722660e-04 -3.3588717e+00)	1.0147087e+05	2.9397244e+02	1.1997701e+00
7.5584e-05     	(4.2821172e+00 6.5786157e-04 -3.3810329e+00)	1.0147797e+05	2.9397210e+02	1.1998554e+00
7.59597e-05    	(4.3094408e+00 6.5802368e-04 -3.4030612e+00)	1.0148507e+05	2.9397176e+02	1.1999407e+00
7.63353e-05    	(4.3366671e+00 6.5846893e-04 -3.4249462e+00)	1.0149216e+05	2.9397142e+02	1.2000260e+00
7.67109e-05    	(4.3637550e+00 6.5818118e-04 -3.4466619e+00)	1.0149926e+05	2.9397107e+02	1.2001113e+00
7.70866e-05    	(4.3907930e+00 6.5901472e-04 -3.4683438e+00)	1.0150635e+05	2.9397073e+02	1.2001966e+00
7.74622e-05    	(4.4178612e+00 6.6021375e-04 -3.4900974e+00)	1.0151344e+05	2.9397038e+02	1.2002819e+00
7.78378e-05    	(4.4450554e+00 6.6179691e-04 -3.5120111e+00)	1.0152053e+05	2.9397003e+02	1.2003671e+00
7.82134e-05    	(4.4724392e+00 6.6449591e-04 -3.5341180e+00)	1.0152761e+05	2.9396968e+02	1.2004523e+00
7.85891e-05    	(4.5000187e+00 6.6938598e-04 -3.5563935e+00)	1.0153469e+05	2.9396932e+02	1.2005374e+00
7.89647e-05    	(4.5277169e+00 6.7498818e-04 -3.5787409e+00)	1.0154176e+05	2.9396896e+02	1.2006225e+00
7.93403e-05    	(4.5554618e+00 6.7923850e-04 -3.6010767e+00)	1.0154883e+05	2.9396860e+02	1.2007076e+00
7.9716e-05     	(4.5831986e+00 6.8205553e-04 -3.6233428e+00)	1.0155590e+05	2.9396823e+02	1.2007927e+00
8.00916e-05    	(4.6109205e+00 6.8305887e-04 -3.6455663e+00)	1.0156297e+05	2.9396786e+02	1.2008777e+00
8.04672e-05    	(4.6386772e+00 6.8224842e-04 -3.6678502e+00)	1.0157003e+05	2.9396750e+02	1.2009628e+00
8.08429e-05    	(4.6664746e+00 6.8013055e-04 -3.6902108e+00)	1.0157709e+05	2.9396712e+02	1.2010478e+00
8.12185e-05    	(4.6942887e+00 6.7689078e-04 -3.7126128e+00)	1.0158415e+05	2.9396675e+02	1.2011328e+00
8.15941e-05    	(4.7221430e+00 6.7487597e-04 -3.7350443e+00)	1.0159121e+05	2.9396637e+02	1.2012177e+00
8.19697e-05    	(4.7500516e+00 6.7422679e-04 -3.7574958e+00)	1.0159826e+05	2.9396600e+02	1.2013026e+00
8.23454e-05    	(4.7780069e+00 6.7362306e-04 -3.7799728e+00)	1.0160531e+05	2.9396562e+02	1.2013876e+00
8.2721e-05     	(4.8060176e+00 6.7290223e-04 -3.8024972e+00)	1.0161236e+05	2.9396523e+02	1.2014724e+00
8.30966e-05    	(4.8341622e+00 6.7342638e-04 -3.8251634e+00)	1.0161940e+05	2.9396485e+02	1.2015573e+00
8.34723e-05    	(4.8624321e+00 6.7434991e-04 -3.8479661e+00)	1.0162644e+05	2.9396446e+02	1.2016421e+00
8.38479e-05    	(4.8907927e+00 6.7502350e-04 -3.8708586e+00)	1.0163347e+05	2.9396407e+02	1.2017269e+00
8.42235e-05    	(4.9192066e+00 6.7556022e-04 -3.8937949e+00)	1.0164050e+05	2.9396367e+02	1.2018116e+00
8.45992e-05    	(4.9473941e+00 6.7815271e-04 -3.9146273e+00)	1.0164752e+05	2.9396326e+02	1.2018962e+00
8.49748e-05    	(4.9755399e+00 6.8001028e-04 -3.9351799e+00)	1.0165453e+05	2.9396285e+02	1.2019808e+00
8.53504e-05    	(5.0040187e+00 6.7684887e-04 -3.9591232e+00)	1.0166156e+05	2.9396245e+02	1.2020656e+00
8.5726e-05     	(5.0322325e+00 6.7454266e-04 -3.9810625e+00)	1.0166857e+05	2.9396205e+02	1.2021502e+00
8.61017e-05    	(5.0604517e+00 6.7104047e-04 -4.0033526e+00)	1.0167559e+05	2.9396164e+02	1.2022348e+00
8.64773e-05    	(5.0887421e+00 6.6880431e-04 -4.0259104e+00)	1.0168261e+05	2.9396123e+02	1.2023195e+00
8.68529e-05    	(5.1171012e+00 6.6729877e-04 -4.0485387e+00)	1.0168962e+05	2.9396083e+02	1.2024041e+00
8.72286e-05    	(5.1454921e+00 6.6624370e-04 -4.0712162e+00)	1.0169663e+05	2.9396041e+02	1.2024887e+00
8.76042e-05    	(5.1739971e+00 6.6719663e-04 -4.0940741e+00)	1.0170364e+05	2.9396000e+02	1.2025732e+00
8.79798e-05    	(5.2026297e+00 6.6971347e-04 -4.1171076e+00)	1.0171064e+05	2.9395958e+02	1.2026577e+00
8.83555e-05    	(5.2313374e+00 6.7280260e-04 -4.1402175e+00)	1.0171764e+05	2.9395916e+02	1.2027422e+00
8.87311e-05    	(5.2600532e+00 6.7577257e-04 -4.1633242e+00)	1.0172464e+05	2.9395874e+02	1.2028267e+00
8.91067e-05    	(5.2887414e+00 6.7818179e-04 -4.1864099e+00)	1.0173164e+05	2.9395831e+02	1.2029111e+00
8.94824e-05    	(5.3173777e+00 6.7957876e-04 -4.2094732e+00)	1.0173863e+05	2.9395789e+02	1.2029956e+00
8.9858e-05     	(5.3459363e+00 6.7963948e-04 -4.2325000e+00)	1.0174562e+05	2.9395746e+02	1.2030800e+00
9.02336e-05    	(5.3740070e+00 6.8390147e-04 -4.2516091e+00)	1.0175258e+05	2.9395701e+02	1.2031641e+00
9.06092e-05    	(5.4021382e+00 6.8583975e-04 -4.2713579e+00)	1.0175955e+05	2.9395656e+02	1.2032483e+00
9.09849e-05    	(5.4305347e+00 6.8517320e-04 -4.2935328e+00)	1.0176652e+05	2.9395612e+02	1.2033326e+00
9.13605e-05    	(5.4588607e+00 6.8665148e-04 -4.3144976e+00)	1.0177349e+05	2.9395567e+02	1.2034168e+00
9.17361e-05    	(5.4872689e+00 6.9021458e-04 -4.3352955e+00)	1.0178044e+05	2.9395522e+02	1.2035009e+00
9.21118e-05    	(5.5157646e+00 6.9466994e-04 -4.3563867e+00)	1.0178740e+05	2.9395476e+02	1.2035850e+00
9.24874e-05    	(5.5443206e+00 6.9996257e-04 -4.3776472e+00)	1.0179435e+05	2.9395430e+02	1.2036691e+00
9.2863e-05     	(5.5729106e+00 7.0548580e-04 -4.3991670e+00)	1.0180130e+05	2.9395384e+02	1.2037532e+00
9.32387e-05    	(5.6015031e+00 7.1053387e-04 -4.4209832e+00)	1.0180825e+05	2.9395338e+02	1.2038372e+00
9.36143e-05    	(5.6300893e+00 7.1471649e-04 -4.4430409e+00)	1.0181520e+05	2.9395292e+02	1.2039213e+00
9.39899e-05    	(5.6586713e+00 7.1783933e-04 -4.4652350e+00)	1.0182215e+05	2.9395246e+02	1.2040054e+00
9.43655e-05    	(5.6872396e+00 7.2005200e-04 -4.4874501e+00)	1.0182910e+05	2.9395200e+02	1.2040895e+00
9.47412e-05    	(5.7158420e+00 7.2224054e-04 -4.5097166e+00)	1.0183605e+05	2.9395153e+02	1.2041735e+00
9.51168e-05    	(5.7445006e+00 7.2460033e-04 -4.5321010e+00)	1.0184299e+05	2.9395107e+02	1.2042575e+00
9.54924e-05    	(5.7732058e+00 7.2706091e-04 -4.5546611e+00)	1.0184994e+05	2.9395060e+02	1.2043415e+00
9.58681e-05    	(5.8016247e+00 7.3367062e-04 -4.5745732e+00)	1.0185685e+05	2.9395012e+02	1.2044253e+00
9.62437e-05    	(5.8298772e+00 7.4239687e-04 -4.5927842e+00)	1.0186375e+05	2.9394961e+02	1.2045089e+00
9.66193e-05    	(5.8584367e+00 7.4769517e-04 -4.6137851e+00)	1.0187066e+05	2.9394912e+02	1.2045927e+00
9.6995e-05     	(5.8869859e+00 7.5348589e-04 -4.6348992e+00)	1.0187758e+05	2.9394863e+02	1.2046765e+00
9.73706e-05    	(5.9154832e+00 7.5919874e-04 -4.6558401e+00)	1.0188449e+05	2.9394814e+02	1.2047602e+00
9.77462e-05    	(5.9438812e+00 7.6218601e-04 -4.6770138e+00)	1.0189141e+05	2.9394765e+02	1.2048440e+00
9.81218e-05    	(5.9723766e+00 7.6642470e-04 -4.6983915e+00)	1.0189832e+05	2.9394716e+02	1.2049277e+00
9.84975e-05    	(6.0010758e+00 7.7132001e-04 -4.7200992e+00)	1.0190523e+05	2.9394667e+02	1.2050115e+00
9.88731e-05    	(6.0297223e+00 7.7351895e-04 -4.7420482e+00)	1.0191214e+05	2.9394618e+02	1.2050952e+00
9.92487e-05    	(6.0583280e+00 7.7498173e-04 -4.7641476e+00)	1.0191905e+05	2.9394569e+02	1.2051790e+00
9.96244e-05    	(6.0871170e+00 7.7972608e-04 -4.7864595e+00)	1.0192596e+05	2.9394519e+02	1.2052627e+00
0.0001         	(6.1159279e+00 7.8351762e-04 -4.8088817e+00)	1.0193287e+05	2.9394470e+02	1.2053464e+00
0.000100376    	(6.1445904e+00 7.8575050e-04 -4.8312977e+00)	1.0193978e+05	2.9394421e+02	1.2054301e+00
0.000100751    	(6.1732530e+00 7.8914588e-04 -4.8537530e+00)	1.0194669e+05	2.9394371e+02	1.2055138e+00
0.000101127    	(6.2019371e+00 7.9371478e-04 -4.8762907e+00)	1.0195359e+05	2.9394321e+02	1.2055975e+00
0.000101503    	(6.2294977e+00 8.5999411e-04 -4.8951068e+00)	1.0196046e+05	2.9394269e+02	1.2056809e+00
0.000101878    	(6.2528895e+00 8.6329971e-04 -4.9002839e+00)	1.0196713e+05	2.9394199e+02	1.2057626e+00
0.000102254    	(6.2822219e+00 8.5715150e-04 -4.9234673e+00)	1.0197402e+05	2.9394149e+02	1.2058462e+00
0.00010263     	(6.3108769e+00 8.5604132e-04 -4.9455238e+00)	1.0198090e+05	2.9394097e+02	1.2059297e+00
0.000103005    	(6.3383337e+00 8.6618808e-04 -4.9638675e+00)	1.0198774e+05	2.9394042e+02	1.2060127e+00
0.000103381    	(6.3660456e+00 8.7691097e-04 -4.9832327e+00)	1.0199458e+05	2.9393987e+02	1.2060959e+00
0.000103757    	(6.3941589e+00 8.8396061e-04 -5.0036250e+00)	1.0200144e+05	2.9393933e+02	1.2061792e+00
0.000104132    	(6.4223678e+00 8.8971398e-04 -5.0244313e+00)	1.0200830e+05	2.9393880e+02	1.2062625e+00
0.000104508    	(6.4505757e+00 8.9530440e-04 -5.0454307e+00)	1.0201516e+05	2.9393827e+02	1.2063458e+00
0.000104884    	(6.4787714e+00 9.0063439e-04 -5.0667062e+00)	1.0202202e+05	2.9393774e+02	1.2064292e+00
0.000105259    	(6.5069541e+00 9.0566586e-04 -5.0881643e+00)	1.0202889e+05	2.9393721e+02	1.2065125e+00
0.000105635    	(6.5351434e+00 9.1036059e-04 -5.1097263e+00)	1.0203575e+05	2.9393668e+02	1.2065959e+00
0.000106011    	(6.5633399e+00 9.1457874e-04 -5.1313562e+00)	1.0204262e+05	2.9393615e+02	1.2066792e+00
0.000106386    	(6.5915462e+00 9.1830370e-04 -5.1530633e+00)	1.0204948e+05	2.9393562e+02	1.2067626e+00
0.000106762    	(6.6197835e+00 9.2161134e-04 -5.1748885e+00)	1.0205635e+05	2.9393509e+02	1.2068459e+00
0.000107137    	(6.6473247e+00 9.2643376e-04 -5.1940357e+00)	1.0206317e+05	2.9393453e+02	1.2069289e+00
0.000107513    	(6.6744383e+00 9.3659572e-04 -5.2109297e+00)	1.0206996e+05	2.9393394e+02	1.2070117e+00
0.000107889    	(6.7027825e+00 9.2940094e-04 -5.2331157e+00)	1.0207681e+05	2.9393340e+02	1.2070949e+00
0.000108264    	(6.7305971e+00 9.3160539e-04 -5.2536702e+00)	1.0208365e+05	2.9393285e+02	1.2071780e+00