# Region type : patch wOutlet
# Faces  :     856
# Area   :     7.7968050e-05
# Time         	sum(phi)
0              	0.0000000e+00
4.5717e-07     	6.6350761e-04
8.49646e-07    	7.8709636e-04
1.24364e-06    	7.4859280e-04
1.63803e-06    	6.9262723e-04
2.03291e-06    	6.5726037e-04
2.42816e-06    	6.3980532e-04
2.82371e-06    	6.3296678e-04
3.21946e-06    	6.2968946e-04
3.61505e-06    	6.2678235e-04
4.00998e-06    	6.2338059e-04
4.40387e-06    	6.2008074e-04
4.7967e-06     	6.1736660e-04
5.18864e-06    	6.1529503e-04
5.58023e-06    	6.1366273e-04
5.97185e-06    	6.1234895e-04
6.36351e-06    	6.1120250e-04
6.75527e-06    	6.1033033e-04
7.14718e-06    	6.0972053e-04
7.53882e-06    	6.0938617e-04
7.92949e-06    	6.0929984e-04
8.31874e-06    	6.0941527e-04
8.70593e-06    	6.0965754e-04
9.0899e-06     	6.1002951e-04
9.47011e-06    	6.1052667e-04
9.84648e-06    	6.1114625e-04
1.02199e-05    	6.1187823e-04
1.05917e-05    	6.1268924e-04
1.0963e-05     	6.1352270e-04
1.13346e-05    	6.1435262e-04
1.17062e-05    	6.1513094e-04
1.20774e-05    	6.1583436e-04
1.24478e-05    	6.1648180e-04
1.28173e-05    	6.1708842e-04
1.31859e-05    	6.1766464e-04
1.35534e-05    	6.1820763e-04
1.39201e-05    	6.1870200e-04
1.42865e-05    	6.1914421e-04
1.46533e-05    	6.1952852e-04
1.50207e-05    	6.1984908e-04
1.53888e-05    	6.2010909e-04
1.57572e-05    	6.2032297e-04
1.61256e-05    	6.2050565e-04
1.6494e-05     	6.2067718e-04
1.68601e-05    	6.2085273e-04
1.72211e-05    	6.2104350e-04
1.75788e-05    	6.2125386e-04
1.79345e-05    	6.2148105e-04
1.82901e-05    	6.2172259e-04
1.86477e-05    	6.2197621e-04
1.90072e-05    	6.2223080e-04
1.9367e-05     	6.2247639e-04
1.97243e-05    	6.2270447e-04
2.00795e-05    	6.2291230e-04
2.04346e-05    	6.2309698e-04
2.07905e-05    	6.2325561e-04
2.1148e-05     	6.2338511e-04
2.15071e-05    	6.2348462e-04
2.1868e-05     	6.2355650e-04
2.22303e-05    	6.2360018e-04
2.2579e-05     	6.2361631e-04
2.29133e-05    	6.2361062e-04
2.3245e-05     	6.2358567e-04
2.35788e-05    	6.2354321e-04
2.39155e-05    	6.2348750e-04
2.42542e-05    	6.2342249e-04
2.45977e-05    	6.2335276e-04
2.49471e-05    	6.2328558e-04
2.53016e-05    	6.2323012e-04
2.56602e-05    	6.2319584e-04
2.6023e-05     	6.2318643e-04
2.63904e-05    	6.2320425e-04
2.67625e-05    	6.2325337e-04
2.71381e-05    	6.2333701e-04
2.7516e-05     	6.2345531e-04
2.78955e-05    	6.2360799e-04
2.8276e-05     	6.2380649e-04
2.86575e-05    	6.2405606e-04
2.90394e-05    	6.2435978e-04
2.94213e-05    	6.2472341e-04
2.98032e-05    	6.2514785e-04
3.01853e-05    	6.2563009e-04
3.05675e-05    	6.2617061e-04
3.09501e-05    	6.2676882e-04
3.13328e-05    	6.2741698e-04
3.17152e-05    	6.2810513e-04
3.2097e-05     	6.2882499e-04
3.24781e-05    	6.2957173e-04
3.28581e-05    	6.3033887e-04
3.32368e-05    	6.3111894e-04
3.36142e-05    	6.3190972e-04
3.39907e-05    	6.3271143e-04
3.43668e-05    	6.3352495e-04
3.47427e-05    	6.3434803e-04
3.51186e-05    	6.3517886e-04
3.54949e-05    	6.3601556e-04
3.58718e-05    	6.3685393e-04
3.62501e-05    	6.3769467e-04
3.663e-05      	6.3853969e-04
3.70114e-05    	6.3939115e-04
3.73945e-05    	6.4025500e-04
3.77803e-05    	6.4114177e-04
3.8169e-05     	6.4206139e-04
3.85599e-05    	6.4301638e-04
3.89524e-05    	6.4401044e-04
3.93459e-05    	6.4504779e-04
3.97404e-05    	6.4613677e-04
4.01358e-05    	6.4729011e-04
4.05319e-05    	6.4852566e-04
4.09283e-05    	6.4985788e-04
4.1325e-05     	6.5130331e-04
4.17217e-05    	6.5287790e-04
4.2118e-05     	6.5459974e-04
4.25138e-05    	6.5648188e-04
4.29094e-05    	6.5853581e-04
4.33049e-05    	6.6076479e-04
4.37004e-05    	6.6316204e-04
4.40961e-05    	6.6571227e-04
4.44919e-05    	6.6839421e-04
4.48874e-05    	6.7117843e-04
4.52825e-05    	6.7403563e-04
4.5677e-05     	6.7693917e-04
4.60708e-05    	6.7986506e-04
4.64642e-05    	6.8279736e-04
4.68577e-05    	6.8572383e-04
4.72515e-05    	6.8863513e-04
4.76456e-05    	6.9153156e-04
4.80396e-05    	6.9441183e-04
4.84329e-05    	6.9726673e-04
4.88202e-05    	7.0005020e-04
4.92012e-05    	7.0273781e-04
4.95796e-05    	7.0533160e-04
4.99576e-05    	7.0782529e-04
5.03377e-05    	7.1021583e-04
5.07205e-05    	7.1248928e-04
5.11062e-05    	7.1463303e-04
5.14941e-05    	7.1663616e-04
5.18825e-05    	7.1849645e-04
5.22699e-05    	7.2021706e-04
5.26565e-05    	7.2181220e-04
5.30426e-05    	7.2329964e-04
5.34287e-05    	7.2469657e-04
5.38142e-05    	7.2600585e-04
5.4197e-05     	7.2721850e-04
5.45768e-05    	7.2833137e-04
5.49545e-05    	7.2934314e-04
5.53316e-05    	7.3025260e-04
5.57078e-05    	7.3105781e-04
5.6084e-05     	7.3175737e-04
5.64617e-05    	7.3235265e-04
5.68408e-05    	7.3284336e-04
5.7221e-05     	7.3323317e-04
5.76022e-05    	7.3352832e-04
5.79838e-05    	7.3373376e-04
5.83641e-05    	7.3385568e-04
5.87426e-05    	7.3390392e-04
5.91196e-05    	7.3388665e-04
5.94938e-05    	7.3380900e-04
5.98657e-05    	7.3367321e-04
6.02358e-05    	7.3347827e-04
6.06031e-05    	7.3322540e-04
6.09647e-05    	7.3292056e-04
6.13185e-05    	7.3257406e-04
6.16687e-05    	7.3219981e-04
6.20184e-05    	7.3180965e-04
6.23694e-05    	7.3141694e-04
6.27218e-05    	7.3103831e-04
6.30767e-05    	7.3068493e-04
6.34343e-05    	7.3036397e-04
6.3794e-05     	7.3008236e-04
6.41548e-05    	7.2984592e-04
6.45156e-05    	7.2966312e-04
6.48767e-05    	7.2954435e-04
6.52378e-05    	7.2949596e-04
6.55989e-05    	7.2951831e-04
6.59602e-05    	7.2960494e-04
6.63225e-05    	7.2974620e-04
6.66864e-05    	7.2992957e-04
6.70519e-05    	7.3014555e-04
6.74189e-05    	7.3039128e-04
6.77871e-05    	7.3066457e-04
6.81553e-05    	7.3096473e-04
6.85248e-05    	7.3129102e-04
6.88936e-05    	7.3163641e-04
6.92595e-05    	7.3198794e-04
6.96229e-05    	7.3233399e-04
6.99863e-05    	7.3266689e-04
7.0348e-05     	7.3297743e-04
7.07052e-05    	7.3325753e-04
7.10593e-05    	7.3350217e-04
7.1417e-05     	7.3370611e-04
7.17797e-05    	7.3386007e-04
7.21478e-05    	7.3395541e-04
7.25236e-05    	7.3398596e-04
7.29055e-05    	7.3394625e-04
7.32923e-05    	7.3382893e-04
7.36829e-05    	7.3362899e-04
7.40759e-05    	7.3334374e-04
7.4471e-05     	7.3296866e-04
7.48651e-05    	7.3249922e-04
7.52577e-05    	7.3192846e-04
7.56493e-05    	7.3124811e-04
7.60406e-05    	7.3044924e-04
7.64319e-05    	7.2952964e-04
7.68238e-05    	7.2849519e-04
7.72163e-05    	7.2734698e-04
7.76092e-05    	7.2609165e-04
7.80028e-05    	7.2474429e-04
7.83975e-05    	7.2332552e-04
7.87934e-05    	7.2185828e-04
7.91906e-05    	7.2036848e-04
7.95892e-05    	7.1888606e-04
7.99895e-05    	7.1743963e-04
8.03907e-05    	7.1605102e-04
8.07919e-05    	7.1474000e-04
8.11924e-05    	7.1351756e-04
8.15923e-05    	7.1239276e-04
8.19922e-05    	7.1136939e-04
8.23925e-05    	7.1045419e-04
8.27935e-05    	7.0965295e-04
8.31953e-05    	7.0896819e-04
8.3598e-05     	7.0840067e-04
8.40016e-05    	7.0794616e-04
8.44063e-05    	7.0760022e-04
8.48121e-05    	7.0735687e-04
8.5219e-05     	7.0720956e-04
8.56262e-05    	7.0715188e-04
8.60332e-05    	7.0717426e-04
8.64394e-05    	7.0727474e-04
8.6844e-05     	7.0745126e-04
8.72465e-05    	7.0770182e-04
8.76468e-05    	7.0802509e-04
8.80446e-05    	7.0841803e-04
8.84399e-05    	7.0887546e-04
8.88327e-05    	7.0939084e-04
8.92234e-05    	7.0995929e-04
8.96118e-05    	7.1057296e-04
8.9998e-05     	7.1122175e-04
9.03828e-05    	7.1189387e-04
9.07667e-05    	7.1257832e-04
9.11502e-05    	7.1326483e-04
9.15336e-05    	7.1394432e-04
9.19172e-05    	7.1460910e-04
9.23012e-05    	7.1525051e-04
9.26858e-05    	7.1585792e-04
9.30714e-05    	7.1642268e-04
9.34576e-05    	7.1693870e-04
9.38442e-05    	7.1740068e-04
9.42312e-05    	7.1780640e-04
9.46182e-05    	7.1815628e-04
9.50055e-05    	7.1845121e-04
9.53935e-05    	7.1869186e-04
9.57822e-05    	7.1887874e-04
9.61718e-05    	7.1901107e-04
9.65622e-05    	7.1908200e-04
9.69533e-05    	7.1908514e-04
9.7345e-05     	7.1901582e-04
9.77373e-05    	7.1887162e-04
9.81303e-05    	7.1865376e-04
9.85242e-05    	7.1836566e-04
9.89189e-05    	7.1801878e-04
9.93143e-05    	7.1762905e-04
9.97098e-05    	7.1721190e-04
0.000100105    	7.1677974e-04
0.000100501    	7.1633874e-04
0.000100896    	7.1589441e-04
0.00010129     	7.1544878e-04
0.000101684    	7.1500408e-04
0.000102076    	7.1456580e-04
0.000102463    	7.1414264e-04
0.000102843    	7.1375272e-04
0.00010321     	7.1341166e-04
0.000103571    	7.1312710e-04
0.000103929    	7.1290235e-04
0.000104289    	7.1274144e-04
0.000104652    	7.1265357e-04
0.000105016    	7.1264959e-04
0.000105383    	7.1273569e-04
0.00010575     	7.1291115e-04
0.000106118    	7.1317164e-04
0.000106487    	7.1350819e-04
0.000106855    	7.1391050e-04
0.000107222    	7.1437228e-04
0.000107585    	7.1489603e-04
0.000107945    	7.1548873e-04
0.000108305    	7.1615329e-04
0.000108666    	7.1689356e-04
0.000109028    	7.1771130e-04
0.000109392    	7.1860827e-04
0.000109757    	7.1957943e-04
0.000110119    	7.2060621e-04
0.000110471    	7.2165876e-04
0.000110818    	7.2274236e-04
0.000111166    	7.2386770e-04
0.000111516    	7.2503408e-04
0.00011187     	7.2622293e-04
0.000112226    	7.2740608e-04
0.000112588    	7.2855911e-04
0.000112957    	7.2965284e-04
0.000113331    	7.3065309e-04
0.000113708    	7.3153566e-04
0.000114086    	7.3228623e-04
0.000114464    	7.3289936e-04
0.000114841    	7.3337553e-04
0.000115217    	7.3370661e-04
0.000115593    	7.3387888e-04
0.000115968    	7.3386864e-04
0.000116343    	7.3364644e-04
0.000116721    	7.3318284e-04
0.000117101    	7.3245685e-04
0.000117484    	7.3144813e-04
0.000117869    	7.3013456e-04
0.000118257    	7.2849807e-04
0.000118648    	7.2652105e-04
0.000119042    	7.2419473e-04
0.000119436    	7.2151550e-04
0.000119829    	7.1847119e-04
0.000120221    	7.1505319e-04
0.000120612    	7.1126371e-04
0.000121003    	7.0709707e-04
0.000121394    	7.0257712e-04
0.000121786    	6.9772135e-04
0.00012218     	6.9252390e-04
0.000122575    	6.8698855e-04
0.000122972    	6.8111009e-04
0.000123372    	6.7494642e-04
0.000123773    	6.6853806e-04
0.000124176    	6.6196096e-04
0.000124578    	6.5527471e-04
0.000124981    	6.4852733e-04
0.000125384    	6.4176180e-04
0.000125788    	6.3501146e-04
0.000126192    	6.2831212e-04
0.000126595    	6.2169421e-04
0.000126999    	6.1517448e-04
0.000127403    	6.0877981e-04
0.000127807    	6.0252813e-04
0.000128211    	5.9643405e-04
0.000128614    	5.9051097e-04
0.000129016    	5.8476272e-04
0.000129419    	5.7919122e-04
0.00012982     	5.7379710e-04
0.000130222    	5.6857900e-04
0.000130623    	5.6354269e-04
0.000131024    	5.5868795e-04
0.000131424    	5.5401418e-04
0.000131824    	5.4952405e-04
0.000132223    	5.4520593e-04
0.00013262     	5.4103584e-04
0.000133016    	5.3699712e-04
0.000133411    	5.3308101e-04
0.000133805    	5.2927391e-04
0.000134198    	5.2555986e-04
0.00013459     	5.2192120e-04
0.000134983    	5.1831823e-04
0.000135377    	5.1472880e-04
0.000135771    	5.1113200e-04
0.000136166    	5.0750221e-04
0.000136561    	5.0382079e-04
0.000136957    	5.0008238e-04
0.000137353    	4.9628045e-04
0.000137748    	4.9241395e-04
0.000138143    	4.8848235e-04
0.000138537    	4.8448075e-04
0.000138929    	4.8038927e-04
0.000139319    	4.7621236e-04
0.000139706    	4.7196334e-04
0.000140091    	4.6764522e-04
0.000140475    	4.6325573e-04
0.000140857    	4.5879040e-04
0.000141238    	4.5425462e-04
0.000141618    	4.4965995e-04
0.000141998    	4.4501414e-04
0.000142377    	4.4032474e-04
0.000142755    	4.3561617e-04
0.000143133    	4.3087787e-04
0.000143512    	4.2611936e-04
0.000143889    	4.2135844e-04
0.000144267    	4.1660194e-04
0.000144644    	4.1187282e-04
0.000145019    	4.0719365e-04
0.000145392    	4.0259648e-04
0.00014576     	3.9809866e-04
0.000146127    	3.9369870e-04
0.000146492    	3.8941765e-04
0.000146853    	3.8527027e-04
0.000147213    	3.8125740e-04
0.000147573    	3.7737741e-04
0.000147932    	3.7364500e-04
0.000148292    	3.7007383e-04
0.000148652    	3.6667673e-04
0.000149013    	3.6347006e-04
0.000149375    	3.6047121e-04
0.000149737    	3.5770432e-04
0.000150097    	3.5517675e-04
0.000150454    	3.5287951e-04
0.00015081     	3.5078701e-04
0.000151166    	3.4886327e-04
0.000151524    	3.4706630e-04
0.000151883    	3.4537098e-04
0.000152244    	3.4376298e-04
0.000152608    	3.4222211e-04
0.000152974    	3.4073848e-04
0.000153341    	3.3931122e-04
0.00015371     	3.3793338e-04
0.00015408     	3.3658566e-04
0.000154451    	3.3525838e-04
0.00015482     	3.3394998e-04
0.000155189    	3.3265106e-04
0.000155556    	3.3135064e-04
0.000155923    	3.3003058e-04
0.00015629     	3.2867700e-04
0.000156657    	3.2728440e-04
0.000157025    	3.2585826e-04
0.000157393    	3.2441447e-04
0.000157762    	3.2295774e-04
0.000158131    	3.2148444e-04
0.000158499    	3.1998286e-04
0.000158866    	3.1843499e-04
0.000159233    	3.1682301e-04
0.000159601    	3.1513077e-04
0.000159972    	3.1335084e-04
0.000160344    	3.1148170e-04
0.000160718    	3.0952900e-04
0.000161096    	3.0750013e-04
0.000161476    	3.0540160e-04
0.000161858    	3.0323489e-04
0.000162243    	3.0101368e-04
0.000162629    	2.9874604e-04
0.000163016    	2.9647087e-04
0.000163404    	2.9417374e-04
0.000163793    	2.9185196e-04
0.000164183    	2.8952469e-04
0.000164572    	2.8722246e-04
0.000164962    	2.8495726e-04
0.00016535     	2.8273666e-04
0.000165738    	2.8057525e-04
0.000166125    	2.7847525e-04
0.000166511    	2.7643010e-04
0.000166896    	2.7443196e-04
0.000167282    	2.7246361e-04
0.000167668    	2.7051380e-04
0.000168055    	2.6856584e-04
0.000168445    	2.6660420e-04
0.000168837    	2.6461114e-04
0.000169231    	2.6257923e-04
0.000169627    	2.6050287e-04
0.000170024    	2.5836734e-04
0.000170423    	2.5615979e-04
0.000170823    	2.5386487e-04
0.000171224    	2.5146765e-04
0.000171627    	2.4895691e-04
0.000172031    	2.4632797e-04
0.000172437    	2.4358431e-04
0.000172844    	2.4074385e-04
0.000173252    	2.3782540e-04
0.00017366     	2.3485150e-04
0.000174069    	2.3183437e-04
0.000174478    	2.2878087e-04
0.000174887    	2.2569523e-04
0.000175295    	2.2257413e-04
0.000175703    	2.1944544e-04
0.000176109    	2.1630979e-04
0.000176515    	2.1318548e-04
0.000176919    	2.1009798e-04
0.000177321    	2.0706993e-04
0.000177721    	2.0410074e-04
0.000178119    	2.0120231e-04
0.000178515    	1.9840390e-04
0.000178908    	1.9568502e-04
0.0001793      	1.9302188e-04
0.000179689    	1.9041443e-04
0.000180078    	1.8789826e-04
0.000180466    	1.8547221e-04
0.000180855    	1.8310764e-04
0.000181243    	1.8078542e-04
0.000181631    	1.7850273e-04
0.000182018    	1.7625542e-04
0.000182405    	1.7404370e-04
0.00018279     	1.7188033e-04
0.000183174    	1.6975131e-04
0.000183556    	1.6761955e-04
0.000183936    	1.6546580e-04
0.000184315    	1.6328038e-04
0.000184693    	1.6104813e-04
0.000185071    	1.5875879e-04
0.000185447    	1.5641803e-04
0.00018582     	1.5403814e-04
0.000186191    	1.5161969e-04
0.000186557    	1.4917262e-04
0.000186918    	1.4670801e-04
0.000187276    	1.4422154e-04
0.000187632    	1.4170234e-04
0.000187988    	1.3914435e-04
0.000188342    	1.3655049e-04
0.000188697    	1.3392802e-04
0.000189051    	1.3127258e-04
0.000189406    	1.2857227e-04
0.000189759    	1.2582786e-04
0.000190112    	1.2303886e-04
0.000190466    	1.2020762e-04
0.000190819    	1.1732672e-04
0.000191174    	1.1439713e-04
0.000191529    	1.1143431e-04
0.000191884    	1.0844205e-04
0.000192241    	1.0541861e-04
0.000192601    	1.0237371e-04
0.000192961    	9.9321169e-05
0.000193324    	9.6272823e-05
0.000193688    	9.3234683e-05
0.000194053    	9.0233080e-05
0.000194419    	8.7286694e-05
0.000194786    	8.4411359e-05
0.000195152    	8.1626789e-05
0.000195517    	7.8954417e-05
0.000195878    	7.6403674e-05
0.000196235    	7.3969704e-05
0.00019659     	7.1633371e-05
0.000196944    	6.9389875e-05
0.000197297    	6.7242027e-05
0.000197651    	6.5185785e-05
0.000198007    	6.3194397e-05
0.000198364    	6.1252231e-05
0.000198724    	5.9362862e-05
0.000199085    	5.7501718e-05
0.000199449    	5.5674289e-05
0.000199815    	5.3880872e-05
0.000200182    	5.2120695e-05
0.000200552    	5.0394353e-05
0.000200922    	4.8694553e-05
0.000201295    	4.7014037e-05
0.000201669    	4.5340442e-05
0.000202043    	4.3652662e-05
0.000202418    	4.1951902e-05
0.000202793    	4.0219161e-05
0.000203168    	3.8451958e-05
0.000203543    	3.6629997e-05
0.000203917    	3.4739094e-05
0.000204291    	3.2781943e-05
0.000204664    	3.0743118e-05
0.000205038    	2.8598142e-05
0.000205413    	2.6330892e-05
0.000205789    	2.3968643e-05
0.000206166    	2.1455213e-05
0.000206545    	1.8807837e-05
0.000206926    	1.6018131e-05
0.000207308    	1.3048061e-05
0.000207691    	9.9455334e-06
0.000208075    	6.7153266e-06
0.00020846     	3.3154426e-06
0.000208845    	-2.7164142e-07
0.000209231    	-3.9435203e-06
0.000209617    	-7.6557334e-06
0.000210003    	-1.1450744e-05
0.000210389    	-1.5251650e-05
0.000210775    	-1.9092716e-05
0.000211161    	-2.2948026e-05
0.000211547    	-2.6833932e-05
0.000211933    	-3.0716990e-05
0.000212319    	-3.4475866e-05
0.000212707    	-3.8169865e-05
0.000213094    	-4.1730053e-05
0.000213483    	-4.5175850e-05
0.000213872    	-4.8558302e-05
0.000214262    	-5.1853403e-05
0.000214653    	-5.5032924e-05
0.000215044    	-5.8084576e-05
0.000215435    	-6.1048765e-05
0.000215827    	-6.3960012e-05
0.00021622     	-6.6820451e-05
0.000216613    	-6.9601019e-05
0.000217005    	-7.2324292e-05
0.000217398    	-7.4984007e-05
0.000217791    	-7.7551429e-05
0.000218184    	-7.9992908e-05
0.000218575    	-8.2292617e-05
0.000218967    	-8.4483523e-05
0.000219357    	-8.6628786e-05
0.000219748    	-8.8769069e-05
0.000220138    	-9.0855367e-05
0.000220528    	-9.2875626e-05
0.000220919    	-9.4805272e-05
0.00022131     	-9.6622021e-05
0.000221701    	-9.8342940e-05
0.000222092    	-9.9976277e-05
0.000222482    	-1.0148591e-04
0.000222872    	-1.0285904e-04
0.000223262    	-1.0412419e-04
0.000223652    	-1.0527748e-04
0.000224042    	-1.0631639e-04
0.000224433    	-1.0723646e-04
0.000224825    	-1.0803647e-04
0.000225217    	-1.0871009e-04
0.00022561     	-1.0925058e-04
0.000226002    	-1.0965041e-04
0.000226394    	-1.0990616e-04
0.000226786    	-1.1001762e-04
0.000227176    	-1.0998843e-04
0.000227566    	-1.0982571e-04
0.000227955    	-1.0953677e-04
0.000228341    	-1.0912705e-04
0.000228726    	-1.0860043e-04
0.000229108    	-1.0796204e-04
0.000229487    	-1.0721670e-04
0.000229864    	-1.0637056e-04
0.000230238    	-1.0543089e-04
0.00023061     	-1.0440449e-04
0.000230978    	-1.0329546e-04
0.000231344    	-1.0211057e-04
0.000231706    	-1.0085985e-04
0.000232066    	-9.9549551e-05
0.000232425    	-9.8186905e-05
0.000232783    	-9.6783070e-05
0.000233138    	-9.5348058e-05
0.000233492    	-9.3892690e-05
0.000233847    	-9.2422176e-05
0.000234203    	-9.0942798e-05
0.000234561    	-8.9461043e-05
0.000234921    	-8.7986200e-05
0.000235283    	-8.6524075e-05
0.000235646    	-8.5082735e-05
0.000236009    	-8.3676262e-05
0.000236362    	-8.2335875e-05
0.000236707    	-8.1068864e-05
0.00023705     	-7.9847069e-05
0.000237394    	-7.8659966e-05
0.000237741    	-7.7499608e-05
0.000238089    	-7.6372121e-05
0.000238444    	-7.5258963e-05
0.000238803    	-7.4156744e-05
0.000239161    	-7.3072478e-05
0.00023952     	-7.1991708e-05
0.000239878    	-7.0902000e-05
0.000240234    	-6.9790087e-05
0.00024059     	-6.8639758e-05
0.000240946    	-6.7434787e-05
0.000241302    	-6.6155449e-05
0.000241661    	-6.4780193e-05
0.000242021    	-6.3288699e-05
0.000242382    	-6.1658679e-05
0.000242745    	-5.9866189e-05
0.00024311     	-5.7885058e-05
0.000243476    	-5.5688870e-05
0.000243843    	-5.3240146e-05
0.000244212    	-5.0489060e-05
0.000244582    	-4.7394693e-05
0.000244955    	-4.3937825e-05
0.000245329    	-4.0097677e-05
0.000245705    	-3.5856788e-05
0.000246083    	-3.1226891e-05
0.00024646     	-2.6238414e-05
0.000246838    	-2.0907334e-05
0.000247216    	-1.5254531e-05
0.00024759     	-9.3233105e-06
0.000247963    	-3.1127781e-06
0.000248338    	3.3804154e-06
0.000248714    	1.0104128e-05
0.000249091    	1.7042072e-05
0.000249471    	2.4185633e-05
0.000249852    	3.1601413e-05
0.000250236    	3.9241492e-05
0.000250618    	4.6844666e-05
0.000250999    	5.4348236e-05
0.000251378    	6.1800769e-05
0.000251753    	6.9215503e-05
0.000252125    	7.6584213e-05
0.000252497    	8.3920488e-05
0.00025287     	9.1243337e-05
0.000253244    	9.8522891e-05
0.00025362     	1.0575501e-04
0.000254       	1.1296039e-04
0.000254386    	1.2014854e-04
0.000254777    	1.2728838e-04
0.000255172    	1.3434590e-04
0.00025557     	1.4128707e-04
0.000255969    	1.4808056e-04
0.00025637     	1.5471008e-04
0.000256771    	1.6118452e-04
0.000257173    	1.6750936e-04
0.000257575    	1.7368873e-04
0.000257977    	1.7973011e-04
0.000258379    	1.8564640e-04
0.00025878     	1.9145391e-04
0.00025918     	1.9717005e-04
0.00025958     	2.0280830e-04
0.000259978    	2.0837960e-04
0.000260376    	2.1389006e-04
0.000260772    	2.1934887e-04
0.000261168    	2.2476474e-04
0.000261562    	2.3014714e-04
0.000261955    	2.3550152e-04
0.000262347    	2.4083440e-04
0.000262739    	2.4614646e-04
0.000263129    	2.5143717e-04
0.000263519    	2.5670136e-04
0.000263909    	2.6192730e-04
0.000264298    	2.6709702e-04
0.000264688    	2.7219876e-04
0.000265076    	2.7721834e-04
0.000265463    	2.8211808e-04
0.000265849    	2.8688416e-04
0.000266232    	2.9149704e-04
0.000266614    	2.9595008e-04
0.000266996    	3.0023253e-04
0.000267379    	3.0434194e-04
0.000267761    	3.0825851e-04
0.000268144    	3.1197107e-04
0.000268528    	3.1545293e-04
0.000268911    	3.1868066e-04
0.000269294    	3.2163169e-04
0.000269675    	3.2429241e-04
0.000270056    	3.2665622e-04
0.000270435    	3.2872498e-04
0.000270813    	3.3050848e-04
0.000271191    	3.3201823e-04
0.000271569    	3.3326900e-04
0.000271948    	3.3426641e-04
0.000272328    	3.3501866e-04
0.000272709    	3.3554011e-04
0.000273089    	3.3584231e-04
0.00027347     	3.3593799e-04
0.000273851    	3.3583983e-04
0.000274232    	3.3555666e-04
0.000274613    	3.3509015e-04
0.000274992    	3.3444449e-04
0.000275368    	3.3363471e-04
0.000275742    	3.3266941e-04
0.000276112    	3.3155378e-04
0.000276478    	3.3031587e-04
0.000276832    	3.2900441e-04
0.000277177    	3.2763716e-04
0.000277518    	3.2622699e-04
0.000277858    	3.2478406e-04
0.000278199    	3.2332162e-04
0.000278543    	3.2185915e-04
0.000278889    	3.2040981e-04
0.000279239    	3.1898844e-04
0.000279591    	3.1760846e-04
0.000279945    	3.1628990e-04
0.000280299    	3.1505204e-04
0.000280652    	3.1390470e-04
0.000281003    	3.1285665e-04
0.000281353    	3.1190988e-04
0.000281704    	3.1106245e-04
0.000282054    	3.1031333e-04
0.000282406    	3.0966161e-04
0.000282759    	3.0911449e-04
0.000283114    	3.0867876e-04
0.000283469    	3.0835388e-04
0.000283825    	3.0813005e-04
0.000284181    	3.0799551e-04
0.000284538    	3.0794176e-04
0.000284897    	3.0795914e-04
0.000285259    	3.0803577e-04
0.000285623    	3.0815554e-04
0.000285988    	3.0830132e-04
0.000286355    	3.0845519e-04
0.000286723    	3.0859537e-04
0.000287092    	3.0870997e-04
0.000287464    	3.0880606e-04
0.000287839    	3.0888124e-04
0.000288216    	3.0894683e-04
0.000288597    	3.0900575e-04
0.00028898     	3.0904761e-04
0.000289365    	3.0906092e-04
0.000289751    	3.0903532e-04
0.000290138    	3.0896512e-04
0.000290526    	3.0885225e-04
0.000290915    	3.0870632e-04
0.000291304    	3.0855396e-04
0.000291695    	3.0843661e-04
0.000292086    	3.0839851e-04
0.000292479    	3.0847558e-04
0.000292871    	3.0870423e-04
0.000293264    	3.0912707e-04
0.000293656    	3.0979181e-04
0.000294048    	3.1075445e-04
0.00029444     	3.1206340e-04
0.000294831    	3.1375472e-04
0.000295222    	3.1585696e-04
0.000295613    	3.1836637e-04
0.000296003    	3.2125702e-04
0.000296394    	3.2452454e-04
0.000296785    	3.2818263e-04
0.000297176    	3.3223577e-04
0.000297569    	3.3669170e-04
0.000297962    	3.4155586e-04
0.000298355    	3.4682144e-04
0.000298749    	3.5246745e-04
0.000299142    	3.5845696e-04
0.000299535    	3.6473622e-04
0.000299926    	3.7123158e-04
0.000300315    	3.7787061e-04
0.000300703    	3.8460564e-04
0.000301089    	3.9137724e-04
0.000301475    	3.9812084e-04
0.00030186     	4.0477957e-04
0.000302245    	4.1131337e-04
0.000302629    	4.1765783e-04
0.000303012    	4.2374819e-04
0.000303393    	4.2954131e-04
0.000303773    	4.3501651e-04
0.000304151    	4.4014803e-04
0.000304529    	4.4489677e-04
0.000304908    	4.4924018e-04
0.000305287    	4.5317413e-04
0.000305667    	4.5669193e-04
0.000306048    	4.5982328e-04
0.000306431    	4.6261608e-04
0.000306814    	4.6510885e-04
0.000307199    	4.6732003e-04
0.000307585    	4.6925393e-04
0.000307971    	4.7090982e-04
0.000308358    	4.7231388e-04
0.000308745    	4.7351730e-04
0.000309134    	4.7455318e-04
0.000309522    	4.7544145e-04
0.00030991     	4.7619316e-04
0.000310298    	4.7682643e-04
0.000310684    	4.7734918e-04
0.000311069    	4.7777830e-04
0.000311453    	4.7814746e-04
0.000311836    	4.7848440e-04
0.000312219    	4.7881587e-04
0.000312602    	4.7916288e-04
0.000312985    	4.7954154e-04
0.000313369    	4.7996753e-04
0.000313754    	4.8045822e-04
0.00031414     	4.8102556e-04
0.000314526    	4.8168641e-04
0.000314913    	4.8246691e-04
0.000315299    	4.8339214e-04
0.000315685    	4.8447578e-04
0.00031607     	4.8571738e-04
0.000316453    	4.8711247e-04
0.000316833    	4.8864874e-04
0.000317211    	4.9030201e-04
0.000317585    	4.9203548e-04
0.000317957    	4.9382180e-04
0.000318326    	4.9562545e-04
0.000318693    	4.9739896e-04
0.000319061    	4.9910271e-04
0.000319428    	5.0069301e-04
0.000319796    	5.0213557e-04
0.000320164    	5.0342227e-04
0.000320532    	5.0453734e-04
0.000320901    	5.0545473e-04
0.000321269    	5.0614334e-04
0.000321635    	5.0658960e-04
0.000322       	5.0680097e-04
0.000322362    	5.0678519e-04
0.000322724    	5.0653939e-04
0.000323083    	5.0606067e-04
0.000323441    	5.0534222e-04
0.000323798    	5.0437630e-04
0.000324155    	5.0315161e-04
0.000324514    	5.0166591e-04
0.000324874    	4.9991905e-04
0.000325235    	4.9790215e-04
0.000325596    	4.9558940e-04
0.000325958    	4.9297082e-04
0.000326319    	4.9005488e-04
0.000326681    	4.8686474e-04
0.000327043    	4.8344295e-04
0.000327404    	4.7983366e-04
0.000327765    	4.7606367e-04
0.000328127    	4.7218149e-04
0.00032849     	4.6825897e-04
0.000328853    	4.6436946e-04
0.000329214    	4.6059597e-04
0.000329571    	4.5706494e-04
0.000329923    	4.5382475e-04
0.000330275    	4.5090491e-04
0.000330632    	4.4834924e-04
0.000330992    	4.4622602e-04
0.000331356    	4.4459520e-04
0.000331725    	4.4349430e-04
0.000332096    	4.4295870e-04
0.000332469    	4.4302537e-04
0.000332845    	4.4372151e-04
0.000333223    	4.4506429e-04
0.000333602    	4.4708744e-04
0.000333983    	4.4984665e-04
0.000334366    	4.5340044e-04
0.000334751    	4.5776779e-04
0.000335136    	4.6292920e-04
0.000335522    	4.6884932e-04
0.000335909    	4.7547932e-04
0.000336296    	4.8273103e-04
0.000336683    	4.9048814e-04
0.000337071    	4.9862089e-04
0.000337459    	5.0700303e-04
0.000337847    	5.1552258e-04
0.000338235    	5.2405566e-04
0.000338624    	5.3245971e-04
0.000339013    	5.4061190e-04
0.000339402    	5.4841785e-04
0.000339792    	5.5576019e-04
0.000340183    	5.6253111e-04
0.000340574    	5.6867913e-04
0.000340967    	5.7417665e-04
0.00034136     	5.7900225e-04
0.000341753    	5.8313389e-04
0.000342147    	5.8656274e-04
0.00034254     	5.8929448e-04
0.000342933    	5.9138483e-04
0.000343324    	5.9289790e-04
0.000343714    	5.9389184e-04
0.000344102    	5.9440042e-04
0.00034449     	5.9446792e-04
0.00034488     	5.9412088e-04
0.000345271    	5.9336867e-04
0.000345664    	5.9221572e-04
0.000346059    	5.9061802e-04
0.000346456    	5.8860868e-04
0.000346854    	5.8623714e-04
0.000347254    	5.8357745e-04
0.000347655    	5.8074017e-04
0.000348055    	5.7784782e-04
0.000348455    	5.7499660e-04
0.000348854    	5.7229403e-04
0.000349252    	5.6984558e-04
0.000349649    	5.6771492e-04
0.000350045    	5.6592475e-04
0.00035044     	5.6448247e-04
0.000350834    	5.6338766e-04
0.000351229    	5.6263784e-04
0.000351623    	5.6226491e-04
0.000352015    	5.6228743e-04
0.000352406    	5.6270684e-04
0.000352795    	5.6350741e-04
0.000353183    	5.6466627e-04
0.000353568    	5.6614374e-04
0.000353952    	5.6788928e-04
0.000354334    	5.6980675e-04
0.000354715    	5.7179375e-04
0.000355095    	5.7376705e-04
0.000355474    	5.7563269e-04
0.000355851    	5.7734898e-04
0.000356225    	5.7887444e-04
0.000356596    	5.8015200e-04
0.000356964    	5.8116517e-04
0.000357329    	5.8190197e-04
0.000357694    	5.8230434e-04
0.000358058    	5.8232374e-04
0.000358424    	5.8194679e-04
0.00035879     	5.8117286e-04
0.000359159    	5.8001182e-04
0.000359528    	5.7851330e-04
0.000359899    	5.7674186e-04
0.000360271    	5.7472074e-04
0.000360643    	5.7242302e-04
0.000361015    	5.6980108e-04
0.000361386    	5.6679632e-04
0.000361757    	5.6337222e-04
0.000362127    	5.5948228e-04
0.000362497    	5.5510147e-04
0.000362867    	5.5020983e-04
0.000363237    	5.4477448e-04
0.000363608    	5.3876590e-04
0.000363977    	5.3219449e-04
0.000364341    	5.2526129e-04
0.000364696    	5.1817107e-04
0.000365049    	5.1093321e-04
0.000365401    	5.0359101e-04
0.000365755    	4.9620877e-04
0.00036611     	4.8888940e-04
0.000366468    	4.8171861e-04
0.00036683     	4.7474186e-04
0.000367195    	4.6804963e-04
0.000367563    	4.6174271e-04
0.000367932    	4.5586949e-04
0.000368302    	4.5047979e-04
0.000368674    	4.4561112e-04
0.000369046    	4.4128411e-04
0.000369418    	4.3747028e-04
0.00036979     	4.3410837e-04
0.000370154    	4.3116757e-04
0.000370503    	4.2865229e-04
0.000370849    	4.2646228e-04
0.000371196    	4.2455547e-04
0.000371547    	4.2293355e-04
0.000371898    	4.2159651e-04
0.000372252    	4.2052384e-04
0.000372612    	4.1970512e-04
0.000372977    	4.1913414e-04
0.000373347    	4.1876682e-04
0.000373721    	4.1856359e-04
0.000374098    	4.1849318e-04
0.000374477    	4.1852942e-04
0.000374858    	4.1863947e-04
0.00037524     	4.1879804e-04
0.000375623    	4.1900656e-04