# Region type : patch cOutlet
# Faces  :     1744
# Area   :     4.2541269e-05
# Time         	average(U)	average(p)	average(T)
0              	(0.0000000e+00 0.0000000e+00 0.0000000e+00)	1.0000000e+05	2.9300000e+02
5.1074e-07     	(-4.5820652e-08 -6.2256782e-04 -4.8671648e-08)	1.0000094e+05	2.9399998e+02
9.44866e-07    	(-9.0459254e-08 -4.4342094e-04 -3.1912635e-08)	1.0000090e+05	2.9399990e+02
1.37899e-06    	(-9.1149442e-08 -3.6034606e-04 -4.3652799e-08)	1.0000088e+05	2.9399990e+02
1.81312e-06    	(-1.1809238e-07 -3.4576780e-04 -4.5199623e-08)	1.0000089e+05	2.9399991e+02
2.24725e-06    	(-1.6878722e-07 -3.2675134e-04 -3.2903321e-08)	1.0000090e+05	2.9399991e+02
2.68137e-06    	(-2.0736278e-07 -3.0491730e-04 -4.6645800e-09)	1.0000090e+05	2.9399991e+02
3.1155e-06     	(-2.1386003e-07 -2.8849354e-04 9.6432104e-09)	1.0000090e+05	2.9399992e+02
3.54962e-06    	(-2.2726118e-07 -2.7667905e-04 6.8298784e-09)	1.0000090e+05	2.9399992e+02
3.98375e-06    	(-2.4481212e-07 -2.6785031e-04 2.3003051e-09)	1.0000090e+05	2.9399992e+02
4.41788e-06    	(-2.7306166e-07 -2.6128083e-04 -4.2987717e-11)	1.0000091e+05	2.9399993e+02
4.852e-06      	(-3.0588895e-07 -2.5537965e-04 2.4466496e-10)	1.0000091e+05	2.9399993e+02
5.28613e-06    	(-3.3096728e-07 -2.4938296e-04 2.3585443e-09)	1.0000091e+05	2.9399993e+02
5.72026e-06    	(-3.5404707e-07 -2.4351443e-04 6.3474609e-09)	1.0000091e+05	2.9399993e+02
6.15438e-06    	(-3.7657277e-07 -2.3790261e-04 1.5936873e-08)	1.0000091e+05	2.9399993e+02
6.58851e-06    	(-3.9475075e-07 -2.3236206e-04 2.8338987e-08)	1.0000092e+05	2.9399994e+02
7.02264e-06    	(-4.1643393e-07 -2.2683904e-04 4.1336733e-08)	1.0000092e+05	2.9399994e+02
7.45676e-06    	(-4.3342087e-07 -2.2139632e-04 5.0721816e-08)	1.0000092e+05	2.9399994e+02
7.89089e-06    	(-4.5057771e-07 -2.1605636e-04 5.2921559e-08)	1.0000092e+05	2.9399994e+02
8.32502e-06    	(-4.6699146e-07 -2.1091836e-04 5.6561825e-08)	1.0000092e+05	2.9399994e+02
8.75914e-06    	(-4.7804099e-07 -2.0596895e-04 6.3151058e-08)	1.0000092e+05	2.9399994e+02
9.19327e-06    	(-4.8505066e-07 -2.0109232e-04 6.9237179e-08)	1.0000092e+05	2.9399994e+02
9.62739e-06    	(-4.9032380e-07 -1.9629084e-04 7.5303695e-08)	1.0000092e+05	2.9399994e+02
1.00615e-05    	(-4.9343148e-07 -1.9164182e-04 8.0620783e-08)	1.0000092e+05	2.9399994e+02
1.04956e-05    	(-4.9389670e-07 -1.8712731e-04 8.4579232e-08)	1.0000092e+05	2.9399994e+02
1.09298e-05    	(-4.9537387e-07 -1.8270229e-04 8.7960745e-08)	1.0000092e+05	2.9399994e+02
1.13639e-05    	(-4.9681002e-07 -1.7837206e-04 9.0576515e-08)	1.0000092e+05	2.9399994e+02
1.1798e-05     	(-4.9672887e-07 -1.7415065e-04 9.1966698e-08)	1.0000092e+05	2.9399994e+02
1.22322e-05    	(-4.9531476e-07 -1.7004652e-04 9.2680144e-08)	1.0000092e+05	2.9399994e+02
1.26663e-05    	(-4.9516083e-07 -1.6604064e-04 9.2919911e-08)	1.0000092e+05	2.9399994e+02
1.31004e-05    	(-4.9683840e-07 -1.6210875e-04 9.3196949e-08)	1.0000092e+05	2.9399994e+02
1.35345e-05    	(-5.0061978e-07 -1.5824969e-04 9.3605402e-08)	1.0000092e+05	2.9399994e+02
1.39687e-05    	(-5.0547539e-07 -1.5446948e-04 9.3631262e-08)	1.0000092e+05	2.9399993e+02
1.44028e-05    	(-5.1137123e-07 -1.5075593e-04 9.3488485e-08)	1.0000092e+05	2.9399993e+02
1.48369e-05    	(-5.1863808e-07 -1.4710762e-04 9.3225238e-08)	1.0000091e+05	2.9399993e+02
1.5271e-05     	(-5.2655445e-07 -1.4355766e-04 9.2739636e-08)	1.0000091e+05	2.9399993e+02
1.57052e-05    	(-5.3364681e-07 -1.4012784e-04 9.2757489e-08)	1.0000091e+05	2.9399993e+02
1.61393e-05    	(-5.3949337e-07 -1.3681317e-04 9.2986033e-08)	1.0000091e+05	2.9399993e+02
1.65734e-05    	(-5.4428809e-07 -1.3361541e-04 9.2512116e-08)	1.0000091e+05	2.9399993e+02
1.70075e-05    	(-5.4859959e-07 -1.3054767e-04 9.1304790e-08)	1.0000091e+05	2.9399993e+02
1.74417e-05    	(-5.5209321e-07 -1.2762055e-04 9.0163872e-08)	1.0000091e+05	2.9399993e+02
1.78758e-05    	(-5.5498885e-07 -1.2483200e-04 8.9102744e-08)	1.0000091e+05	2.9399993e+02
1.83099e-05    	(-5.5691715e-07 -1.2218161e-04 8.7956349e-08)	1.0000091e+05	2.9399993e+02
1.8744e-05     	(-5.5641363e-07 -1.1968380e-04 8.6321737e-08)	1.0000091e+05	2.9399992e+02
1.91782e-05    	(-5.5436622e-07 -1.1736025e-04 8.4241646e-08)	1.0000090e+05	2.9399992e+02
1.96123e-05    	(-5.5145113e-07 -1.1522170e-04 8.2417301e-08)	1.0000090e+05	2.9399992e+02
2.00464e-05    	(-5.4701741e-07 -1.1326724e-04 8.0847139e-08)	1.0000090e+05	2.9399992e+02
2.04806e-05    	(-5.4194153e-07 -1.1150183e-04 7.9610230e-08)	1.0000090e+05	2.9399992e+02
2.09147e-05    	(-5.3748466e-07 -1.0993211e-04 7.8832673e-08)	1.0000090e+05	2.9399992e+02
2.13488e-05    	(-5.3275164e-07 -1.0855374e-04 7.8323929e-08)	1.0000090e+05	2.9399992e+02
2.17829e-05    	(-5.2691232e-07 -1.0735345e-04 7.8019524e-08)	1.0000090e+05	2.9399992e+02
2.22171e-05    	(-5.1953711e-07 -1.0632004e-04 7.7912960e-08)	1.0000090e+05	2.9399992e+02
2.26512e-05    	(-5.1171960e-07 -1.0544425e-04 7.7711402e-08)	1.0000090e+05	2.9399992e+02
2.30853e-05    	(-5.0357269e-07 -1.0471314e-04 7.7295870e-08)	1.0000090e+05	2.9399992e+02
2.35194e-05    	(-4.9535398e-07 -1.0409925e-04 7.6871036e-08)	1.0000090e+05	2.9399992e+02
2.39536e-05    	(-4.8751506e-07 -1.0356569e-04 7.6377742e-08)	1.0000090e+05	2.9399992e+02
2.43877e-05    	(-4.7878214e-07 -1.0308651e-04 7.5562590e-08)	1.0000090e+05	2.9399992e+02
2.48218e-05    	(-4.6841181e-07 -1.0264075e-04 7.4194695e-08)	1.0000090e+05	2.9399992e+02
2.52559e-05    	(-4.5605230e-07 -1.0221137e-04 7.2487747e-08)	1.0000090e+05	2.9399992e+02
2.56901e-05    	(-4.4198069e-07 -1.0178045e-04 7.0602102e-08)	1.0000090e+05	2.9399992e+02
2.61242e-05    	(-4.2640009e-07 -1.0133420e-04 6.7973803e-08)	1.0000090e+05	2.9399992e+02
2.65583e-05    	(-4.0931321e-07 -1.0086088e-04 6.5388664e-08)	1.0000090e+05	2.9399992e+02
2.69925e-05    	(-3.9184262e-07 -1.0035095e-04 6.2907780e-08)	1.0000090e+05	2.9399992e+02
2.74266e-05    	(-3.7458970e-07 -9.9798980e-05 6.0738707e-08)	1.0000090e+05	2.9399992e+02
2.78607e-05    	(-3.5808922e-07 -9.9197692e-05 5.8759441e-08)	1.0000090e+05	2.9399992e+02
2.82948e-05    	(-3.4249930e-07 -9.8537168e-05 5.6773402e-08)	1.0000090e+05	2.9399992e+02
2.8729e-05     	(-3.2770228e-07 -9.7809579e-05 5.4765074e-08)	1.0000090e+05	2.9399992e+02
2.91631e-05    	(-3.1351851e-07 -9.7010605e-05 5.2741707e-08)	1.0000090e+05	2.9399992e+02
2.95972e-05    	(-2.9970796e-07 -9.6138017e-05 5.0835706e-08)	1.0000090e+05	2.9399992e+02
3.00313e-05    	(-2.8632408e-07 -9.5191318e-05 4.9104993e-08)	1.0000090e+05	2.9399992e+02
3.04655e-05    	(-2.7339246e-07 -9.4170447e-05 4.7513415e-08)	1.0000090e+05	2.9399992e+02
3.08996e-05    	(-2.6096405e-07 -9.3070363e-05 4.6041717e-08)	1.0000090e+05	2.9399992e+02
3.13337e-05    	(-2.4913479e-07 -9.1891127e-05 4.4427357e-08)	1.0000090e+05	2.9399992e+02
3.17678e-05    	(-2.3738743e-07 -9.0641665e-05 4.2609295e-08)	1.0000090e+05	2.9399992e+02
3.2202e-05     	(-2.2553589e-07 -8.9335198e-05 4.0709423e-08)	1.0000090e+05	2.9399992e+02
3.26361e-05    	(-2.1359935e-07 -8.7985905e-05 3.8995801e-08)	1.0000090e+05	2.9399992e+02
3.30702e-05    	(-2.0164012e-07 -8.6606159e-05 3.7621900e-08)	1.0000090e+05	2.9399992e+02
3.35043e-05    	(-1.8988926e-07 -8.5207077e-05 3.6446359e-08)	1.0000090e+05	2.9399992e+02
3.39385e-05    	(-1.7824663e-07 -8.3800215e-05 3.5423977e-08)	1.0000090e+05	2.9399992e+02
3.43726e-05    	(-1.6677615e-07 -8.2397704e-05 3.4657021e-08)	1.0000090e+05	2.9399992e+02
3.48067e-05    	(-1.5567579e-07 -8.1010190e-05 3.4296375e-08)	1.0000090e+05	2.9399992e+02
3.52409e-05    	(-1.4447207e-07 -7.9646264e-05 3.3746472e-08)	1.0000090e+05	2.9399992e+02
3.5675e-05     	(-1.3415983e-07 -7.8315897e-05 3.3328504e-08)	1.0000090e+05	2.9399992e+02
3.61091e-05    	(-1.2402102e-07 -7.7030047e-05 3.2808623e-08)	1.0000090e+05	2.9399992e+02
3.65432e-05    	(-1.1449154e-07 -7.5796980e-05 3.2714502e-08)	1.0000090e+05	2.9399992e+02
3.69774e-05    	(-1.0474412e-07 -7.4623756e-05 3.2169115e-08)	1.0000090e+05	2.9399992e+02
3.74115e-05    	(-9.5512280e-08 -7.3513198e-05 3.1904129e-08)	1.0000090e+05	2.9399992e+02
3.78456e-05    	(-8.6046782e-08 -7.2466748e-05 3.1558431e-08)	1.0000089e+05	2.9399991e+02
3.82797e-05    	(-7.6737573e-08 -7.1487099e-05 3.1709448e-08)	1.0000089e+05	2.9399991e+02
3.87139e-05    	(-6.7933924e-08 -7.0579817e-05 3.1977162e-08)	1.0000089e+05	2.9399991e+02
3.9148e-05     	(-6.0631601e-08 -6.9742862e-05 3.2354419e-08)	1.0000089e+05	2.9399991e+02
3.95821e-05    	(-5.4937439e-08 -6.8969180e-05 3.2921219e-08)	1.0000089e+05	2.9399991e+02
4.00162e-05    	(-5.0101880e-08 -6.8252023e-05 3.3530519e-08)	1.0000089e+05	2.9399991e+02
4.04504e-05    	(-4.5487528e-08 -6.7586898e-05 3.3804650e-08)	1.0000089e+05	2.9399991e+02
4.08845e-05    	(-4.1027405e-08 -6.6968814e-05 3.4206548e-08)	1.0000089e+05	2.9399991e+02
4.13186e-05    	(-3.7698267e-08 -6.6389814e-05 3.4589362e-08)	1.0000089e+05	2.9399991e+02
4.17528e-05    	(-3.5759745e-08 -6.5842445e-05 3.4995458e-08)	1.0000089e+05	2.9399991e+02
4.21869e-05    	(-3.4734686e-08 -6.5321204e-05 3.5235086e-08)	1.0000089e+05	2.9399991e+02
4.2621e-05     	(-3.4187227e-08 -6.4817561e-05 3.5574568e-08)	1.0000089e+05	2.9399991e+02
4.30551e-05    	(-3.4062168e-08 -6.4319990e-05 3.6379722e-08)	1.0000089e+05	2.9399991e+02
4.34893e-05    	(-3.4826623e-08 -6.3821642e-05 3.7016662e-08)	1.0000089e+05	2.9399991e+02
4.39234e-05    	(-3.6215482e-08 -6.3317692e-05 3.7284586e-08)	1.0000089e+05	2.9399991e+02
4.43575e-05    	(-3.8145659e-08 -6.2799005e-05 3.7548072e-08)	1.0000089e+05	2.9399991e+02
4.47916e-05    	(-4.0810844e-08 -6.2256532e-05 3.7866275e-08)	1.0000089e+05	2.9399991e+02
4.52258e-05    	(-4.4374907e-08 -6.1684481e-05 3.8312581e-08)	1.0000089e+05	2.9399991e+02
4.56599e-05    	(-4.8636559e-08 -6.1079687e-05 3.8975394e-08)	1.0000089e+05	2.9399991e+02
4.6094e-05     	(-5.3180420e-08 -6.0439274e-05 3.9758255e-08)	1.0000089e+05	2.9399991e+02
4.65281e-05    	(-5.7612785e-08 -5.9760022e-05 4.0672810e-08)	1.0000089e+05	2.9399991e+02
4.69623e-05    	(-6.2152869e-08 -5.9039837e-05 4.1438776e-08)	1.0000089e+05	2.9399991e+02
4.73964e-05    	(-6.6648174e-08 -5.8277930e-05 4.2183639e-08)	1.0000089e+05	2.9399991e+02
4.78305e-05    	(-7.1269046e-08 -5.7474486e-05 4.2871518e-08)	1.0000089e+05	2.9399991e+02
4.82646e-05    	(-7.6030140e-08 -5.6631909e-05 4.3295827e-08)	1.0000089e+05	2.9399991e+02
4.86988e-05    	(-8.0899418e-08 -5.5754804e-05 4.3559401e-08)	1.0000089e+05	2.9399991e+02
4.91329e-05    	(-8.5711057e-08 -5.4848356e-05 4.3691473e-08)	1.0000089e+05	2.9399991e+02
4.9567e-05     	(-9.0447202e-08 -5.3917805e-05 4.3621026e-08)	1.0000089e+05	2.9399991e+02
5.00012e-05    	(-9.5326562e-08 -5.2967635e-05 4.3129361e-08)	1.0000089e+05	2.9399991e+02
5.04353e-05    	(-1.0002073e-07 -5.2003799e-05 4.2801076e-08)	1.0000089e+05	2.9399991e+02
5.08694e-05    	(-1.0426112e-07 -5.1035220e-05 4.2279309e-08)	1.0000089e+05	2.9399991e+02
5.13035e-05    	(-1.0766614e-07 -5.0070353e-05 4.1715599e-08)	1.0000089e+05	2.9399991e+02
5.17377e-05    	(-1.1051982e-07 -4.9116631e-05 4.1334898e-08)	1.0000089e+05	2.9399991e+02
5.21718e-05    	(-1.1339589e-07 -4.8179860e-05 4.1162064e-08)	1.0000088e+05	2.9399991e+02
5.26059e-05    	(-1.1589319e-07 -4.7264278e-05 4.1180299e-08)	1.0000088e+05	2.9399991e+02
5.304e-05      	(-1.1813000e-07 -4.6373621e-05 4.1041248e-08)	1.0000088e+05	2.9399991e+02
5.34742e-05    	(-1.2041597e-07 -4.5511702e-05 4.0709614e-08)	1.0000088e+05	2.9399990e+02
5.39083e-05    	(-1.2288568e-07 -4.4681395e-05 4.0229323e-08)	1.0000088e+05	2.9399990e+02
5.43424e-05    	(-1.2558341e-07 -4.3884344e-05 3.9721731e-08)	1.0000088e+05	2.9399990e+02
5.47765e-05    	(-1.2832113e-07 -4.3121116e-05 3.9175137e-08)	1.0000088e+05	2.9399990e+02
5.52107e-05    	(-1.3076115e-07 -4.2391707e-05 3.8536465e-08)	1.0000088e+05	2.9399990e+02
5.56448e-05    	(-1.3261822e-07 -4.1695342e-05 3.7817620e-08)	1.0000088e+05	2.9399990e+02
5.60789e-05    	(-1.3387969e-07 -4.1030098e-05 3.7145277e-08)	1.0000088e+05	2.9399990e+02
5.6513e-05     	(-1.3455343e-07 -4.0393243e-05 3.6600720e-08)	1.0000088e+05	2.9399990e+02
5.69472e-05    	(-1.3465509e-07 -3.9781841e-05 3.6078535e-08)	1.0000088e+05	2.9399990e+02
5.73813e-05    	(-1.3428058e-07 -3.9192796e-05 3.5504963e-08)	1.0000088e+05	2.9399990e+02
5.78154e-05    	(-1.3344985e-07 -3.8622589e-05 3.4883862e-08)	1.0000088e+05	2.9399990e+02
5.82496e-05    	(-1.3213335e-07 -3.8067482e-05 3.4235917e-08)	1.0000088e+05	2.9399990e+02
5.86837e-05    	(-1.3034692e-07 -3.7523556e-05 3.3534896e-08)	1.0000088e+05	2.9399990e+02
5.91178e-05    	(-1.2808313e-07 -3.6986785e-05 3.2794804e-08)	1.0000088e+05	2.9399990e+02
5.95519e-05    	(-1.2533402e-07 -3.6453023e-05 3.1987540e-08)	1.0000088e+05	2.9399990e+02
5.99861e-05    	(-1.2222915e-07 -3.5918136e-05 3.1186941e-08)	1.0000088e+05	2.9399990e+02
6.04202e-05    	(-1.1900622e-07 -3.5378607e-05 3.0466233e-08)	1.0000088e+05	2.9399990e+02
6.08543e-05    	(-1.1571992e-07 -3.4831357e-05 2.9790835e-08)	1.0000088e+05	2.9399990e+02
6.12884e-05    	(-1.1238040e-07 -3.4273824e-05 2.9107132e-08)	1.0000088e+05	2.9399990e+02
6.17226e-05    	(-1.0887654e-07 -3.3703999e-05 2.8352646e-08)	1.0000088e+05	2.9399990e+02
6.21567e-05    	(-1.0501090e-07 -3.3121349e-05 2.7469796e-08)	1.0000088e+05	2.9399990e+02
6.25908e-05    	(4.7572067e-04 -5.3497287e-04 -3.2572233e-04)	9.9999502e+04	2.9399047e+02
6.30249e-05    	(5.3348079e-04 -6.3080832e-03 5.8654629e-05)	9.9985411e+04	2.9390829e+02
6.34591e-05    	(2.0442442e-03 -2.9601599e-02 -2.0238763e-04)	9.9961295e+04	2.9383551e+02
6.38932e-05    	(1.7740828e-03 -6.6619960e-02 -6.2281799e-04)	9.9956496e+04	2.9382192e+02
6.43273e-05    	(1.0860569e-03 -9.2154417e-02 -5.6910007e-04)	9.9953849e+04	2.9381034e+02
6.47615e-05    	(-4.9151551e-04 -1.0684983e-01 6.6147931e-05)	9.9950725e+04	2.9379390e+02
6.51956e-05    	(-1.4059281e-03 -1.1071969e-01 1.8931510e-04)	9.9953605e+04	2.9381326e+02
6.56297e-05    	(-1.4355791e-03 -1.0862779e-01 2.2872385e-04)	9.9959646e+04	2.9384124e+02
6.60638e-05    	(-1.1063953e-03 -1.0492927e-01 4.4425105e-04)	9.9965352e+04	2.9385835e+02
6.6498e-05     	(-1.0884597e-03 -1.0069515e-01 6.1768859e-04)	9.9969004e+04	2.9386845e+02
6.69321e-05    	(-1.1529526e-03 -9.5055598e-02 6.7783195e-04)	9.9970269e+04	2.9387460e+02
6.73662e-05    	(-1.0375941e-03 -8.8632122e-02 5.4896576e-04)	9.9969670e+04	2.9387817e+02
6.78003e-05    	(-6.4368730e-04 -8.2397850e-02 1.5656474e-05)	9.9967506e+04	2.9387881e+02
6.82345e-05    	(-2.9688489e-04 -7.7336466e-02 -8.4977421e-04)	9.9964198e+04	2.9387611e+02
6.86686e-05    	(6.3389638e-04 -7.3674415e-02 -1.5268128e-03)	9.9960094e+04	2.9387242e+02
6.91027e-05    	(8.8942767e-04 -7.1061828e-02 -7.5352827e-04)	9.9957062e+04	2.9387405e+02
6.95368e-05    	(1.3570437e-03 -6.8057183e-02 -5.0520862e-04)	9.9955330e+04	2.9387582e+02
6.9971e-05     	(1.6028182e-03 -6.5362378e-02 -5.1647076e-04)	9.9954022e+04	2.9387796e+02
7.04051e-05    	(1.5507905e-03 -6.3019476e-02 -5.6648815e-04)	9.9952945e+04	2.9387948e+02
7.08392e-05    	(1.4328022e-03 -6.1118249e-02 -6.0733062e-04)	9.9952105e+04	2.9388100e+02
7.12733e-05    	(1.2795756e-03 -5.9643730e-02 -6.3027895e-04)	9.9951491e+04	2.9388254e+02
7.17075e-05    	(1.0778652e-03 -5.8577830e-02 -6.6062299e-04)	9.9951098e+04	2.9388412e+02
7.21416e-05    	(8.0977708e-04 -5.7918258e-02 -6.7366732e-04)	9.9950936e+04	2.9388577e+02
7.25757e-05    	(4.9434674e-04 -5.7597152e-02 -6.6224046e-04)	9.9950985e+04	2.9388747e+02
7.30099e-05    	(1.6315779e-04 -5.7483692e-02 -6.3076494e-04)	9.9951201e+04	2.9388921e+02
7.3444e-05     	(-1.7265203e-04 -5.7469758e-02 -5.8186524e-04)	9.9951546e+04	2.9389095e+02
7.38781e-05    	(-5.0337751e-04 -5.7473029e-02 -5.2108897e-04)	9.9951996e+04	2.9389267e+02
7.43122e-05    	(-8.2438558e-04 -5.7469533e-02 -4.5406148e-04)	9.9952539e+04	2.9389440e+02
7.47464e-05    	(-1.1252431e-03 -5.7475603e-02 -3.8236148e-04)	9.9953171e+04	2.9389612e+02
7.51805e-05    	(-1.3877432e-03 -5.7478358e-02 -3.1134776e-04)	9.9953876e+04	2.9389784e+02
7.56146e-05    	(-1.6070717e-03 -5.7448754e-02 -2.4907228e-04)	9.9954636e+04	2.9389955e+02
7.60487e-05    	(-1.7798790e-03 -5.7401380e-02 -2.0008112e-04)	9.9955457e+04	2.9390126e+02
7.64829e-05    	(-1.9066084e-03 -5.7373800e-02 -1.6833872e-04)	9.9956347e+04	2.9390298e+02
7.6917e-05     	(-1.9814666e-03 -5.7356475e-02 -1.5391509e-04)	9.9957293e+04	2.9390469e+02
7.73511e-05    	(-2.0054574e-03 -5.7296086e-02 -1.5082112e-04)	9.9958264e+04	2.9390638e+02
7.77852e-05    	(-1.9890543e-03 -5.7158860e-02 -1.5355506e-04)	9.9959242e+04	2.9390802e+02
7.82194e-05    	(-1.9467902e-03 -5.6952426e-02 -1.6120643e-04)	9.9960224e+04	2.9390963e+02
7.86535e-05    	(-1.8864886e-03 -5.6688772e-02 -1.7120531e-04)	9.9961200e+04	2.9391119e+02
7.90876e-05    	(-1.8092989e-03 -5.6366180e-02 -1.8001651e-04)	9.9962147e+04	2.9391269e+02
7.95217e-05    	(-1.7225515e-03 -5.5984596e-02 -1.8508183e-04)	9.9963040e+04	2.9391411e+02
7.99559e-05    	(-1.6343921e-03 -5.5545023e-02 -1.8561939e-04)	9.9963860e+04	2.9391543e+02
8.039e-05      	(-1.5553520e-03 -5.5052570e-02 -1.8052098e-04)	9.9964592e+04	2.9391665e+02
8.08241e-05    	(-1.4947685e-03 -5.4502051e-02 -1.7101301e-04)	9.9965227e+04	2.9391775e+02
8.12583e-05    	(-1.4457327e-03 -5.3877784e-02 -1.6229251e-04)	9.9965755e+04	2.9391874e+02
8.16924e-05    	(-1.4088565e-03 -5.3195553e-02 -1.4816956e-04)	9.9966186e+04	2.9391963e+02
8.21265e-05    	(-1.3800401e-03 -5.2473098e-02 -1.2932446e-04)	9.9966531e+04	2.9392041e+02
8.25606e-05    	(-1.3507468e-03 -5.1703569e-02 -1.1197652e-04)	9.9966789e+04	2.9392110e+02
8.29948e-05    	(-1.3211420e-03 -5.0884452e-02 -9.5151442e-05)	9.9966957e+04	2.9392169e+02
8.34289e-05    	(-1.2934767e-03 -5.0032615e-02 -7.8524277e-05)	9.9967046e+04	2.9392219e+02
8.3863e-05     	(-1.2666829e-03 -4.9156312e-02 -6.2351878e-05)	9.9967066e+04	2.9392261e+02
8.42971e-05    	(-1.2403781e-03 -4.8243582e-02 -4.7013732e-05)	9.9967020e+04	2.9392296e+02
8.47313e-05    	(-1.2132401e-03 -4.7275994e-02 -3.2019955e-05)	9.9966907e+04	2.9392323e+02
8.51654e-05    	(-1.1845848e-03 -4.6245234e-02 -1.6205793e-05)	9.9966728e+04	2.9392342e+02
8.55995e-05    	(-1.1553494e-03 -4.5155536e-02 1.0852683e-06)	9.9966486e+04	2.9392354e+02
8.60336e-05    	(-1.1279776e-03 -4.4015093e-02 1.9454146e-05)	9.9966188e+04	2.9392360e+02
8.64678e-05    	(-1.1042353e-03 -4.2828390e-02 3.8867423e-05)	9.9965838e+04	2.9392360e+02
8.69019e-05    	(-1.0842596e-03 -4.1598862e-02 5.9259343e-05)	9.9965440e+04	2.9392354e+02
8.7336e-05     	(-1.0669232e-03 -4.0332090e-02 7.9936039e-05)	9.9964997e+04	2.9392342e+02
8.77702e-05    	(-1.0508949e-03 -3.9040293e-02 1.0043084e-04)	9.9964514e+04	2.9392327e+02
8.82043e-05    	(-1.0340846e-03 -3.7739706e-02 1.2058894e-04)	9.9964003e+04	2.9392308e+02
8.86384e-05    	(-8.7164783e-04 -3.6601473e-02 -9.6168658e-05)	9.9963391e+04	2.9392257e+02
8.90725e-05    	(-6.0089499e-04 -3.5596628e-02 -6.2356687e-05)	9.9962593e+04	2.9392124e+02
8.95067e-05    	(-4.1910698e-04 -3.4637637e-02 7.2233009e-06)	9.9962021e+04	2.9392078e+02
8.99408e-05    	(-3.1843662e-04 -3.3818473e-02 6.4542182e-05)	9.9961500e+04	2.9392077e+02
9.03749e-05    	(-2.2551172e-04 -3.3165839e-02 9.6288934e-05)	9.9960996e+04	2.9392031e+02
9.0809e-05     	(-2.4272809e-04 -3.2445661e-02 4.1995642e-04)	9.9960661e+04	2.9392029e+02
9.12432e-05    	(-3.5045726e-04 -3.1629569e-02 4.6041538e-04)	9.9960464e+04	2.9392056e+02
9.16773e-05    	(-3.7259532e-04 -3.0908369e-02 3.7163368e-04)	9.9960322e+04	2.9392079e+02
9.21114e-05    	(-3.5053456e-04 -3.0280896e-02 2.9292346e-04)	9.9960207e+04	2.9392102e+02
9.25455e-05    	(-2.8772537e-04 -2.9777102e-02 2.5520875e-04)	9.9960132e+04	2.9392127e+02
9.29797e-05    	(-2.0112494e-04 -2.9387643e-02 2.3075543e-04)	9.9960107e+04	2.9392155e+02
9.34138e-05    	(-1.0515871e-04 -2.9107491e-02 2.1170970e-04)	9.9960146e+04	2.9392187e+02
9.38479e-05    	(-7.5490207e-06 -2.8928401e-02 2.0007190e-04)	9.9960253e+04	2.9392225e+02
9.4282e-05     	(8.7660175e-05 -2.8819488e-02 1.8942980e-04)	9.9960419e+04	2.9392265e+02
9.47162e-05    	(1.7894722e-04 -2.8755548e-02 1.7834332e-04)	9.9960636e+04	2.9392310e+02
9.51503e-05    	(2.6406993e-04 -2.8721272e-02 1.6671394e-04)	9.9960897e+04	2.9392356e+02
9.55844e-05    	(3.4202047e-04 -2.8706537e-02 1.5453931e-04)	9.9961192e+04	2.9392404e+02
9.60186e-05    	(4.1187529e-04 -2.8701009e-02 1.4376886e-04)	9.9961510e+04	2.9392454e+02
9.64527e-05    	(4.7455367e-04 -2.8693840e-02 1.3723968e-04)	9.9961840e+04	2.9392503e+02
9.68868e-05    	(5.2801139e-04 -2.8676993e-02 1.3140916e-04)	9.9962170e+04	2.9392551e+02
9.73209e-05    	(5.6982890e-04 -2.8642537e-02 1.2380268e-04)	9.9962492e+04	2.9392597e+02
9.77551e-05    	(6.0041503e-04 -2.8582374e-02 1.1779018e-04)	9.9962796e+04	2.9392641e+02
9.81892e-05    	(6.2156293e-04 -2.8488430e-02 1.1399444e-04)	9.9963074e+04	2.9392682e+02
9.86233e-05    	(6.3554934e-04 -2.8353215e-02 1.0890697e-04)	9.9963319e+04	2.9392720e+02
9.90574e-05    	(6.4409364e-04 -2.8169856e-02 1.0142288e-04)	9.9963523e+04	2.9392753e+02
9.94916e-05    	(6.4771767e-04 -2.7935511e-02 9.3700147e-05)	9.9963681e+04	2.9392782e+02
9.99257e-05    	(6.4791052e-04 -2.7651056e-02 8.6821899e-05)	9.9963788e+04	2.9392805e+02
0.00010036     	(6.4729697e-04 -2.7314522e-02 8.0001660e-05)	9.9963842e+04	2.9392824e+02
0.000100794    	(6.4805443e-04 -2.6922759e-02 7.2634907e-05)	9.9963843e+04	2.9392837e+02
0.000101228    	(6.5059878e-04 -2.6471259e-02 6.4012189e-05)	9.9963792e+04	2.9392845e+02
0.000101662    	(6.5459138e-04 -2.5954555e-02 5.3816046e-05)	9.9963692e+04	2.9392849e+02
0.000102096    	(6.6018270e-04 -2.5373446e-02 4.2822799e-05)	9.9963547e+04	2.9392847e+02
0.00010253     	(6.6677907e-04 -2.4734408e-02 3.1347002e-05)	9.9963357e+04	2.9392841e+02
0.000102965    	(6.7456664e-04 -2.4047075e-02 2.0129770e-05)	9.9963130e+04	2.9392832e+02
0.000103399    	(6.8263116e-04 -2.3320599e-02 8.9122552e-06)	9.9962871e+04	2.9392819e+02
0.000103833    	(6.9044512e-04 -2.2565500e-02 -2.6020342e-06)	9.9962584e+04	2.9392804e+02
0.000104267    	(6.9886074e-04 -2.1794434e-02 -1.4879181e-05)	9.9962277e+04	2.9392787e+02
0.000104701    	(4.4186865e-04 -2.1160959e-02 -1.5594456e-04)	9.9961876e+04	2.9392739e+02
0.000105135    	(-4.3221611e-04 -2.0838316e-02 -2.5158511e-04)	9.9961146e+04	2.9392581e+02
0.000105569    	(-1.0871219e-03 -2.0505379e-02 -1.2706500e-04)	9.9960327e+04	2.9392356e+02
0.000106003    	(-1.3282134e-03 -2.0528393e-02 -3.3407268e-04)	9.9959580e+04	2.9392081e+02
0.000106438    	(-1.3576742e-03 -2.2105920e-02 -1.4845001e-05)	9.9957748e+04	2.9391442e+02
0.000106872    	(-2.0661620e-03 -2.3385749e-02 1.3086378e-04)	9.9957108e+04	2.9391460e+02
0.000107306    	(-7.1540326e-04 -2.4634808e-02 2.0671012e-04)	9.9956258e+04	2.9391148e+02
0.00010774     	(9.3503519e-04 -2.5870616e-02 3.1262248e-04)	9.9955868e+04	2.9390998e+02
0.000108174    	(2.6224991e-03 -2.6359609e-02 1.6468398e-04)	9.9955993e+04	2.9391045e+02
0.000108608    	(2.5812567e-03 -2.6244032e-02 -1.0267389e-04)	9.9956437e+04	2.9391121e+02
0.000109042    	(2.1840016e-03 -2.6007132e-02 -3.8875895e-04)	9.9956746e+04	2.9391152e+02
0.000109476    	(1.2365502e-03 -2.5199804e-02 -7.9458029e-04)	9.9957104e+04	2.9391283e+02
0.000109911    	(6.1318072e-04 -2.4414256e-02 -5.8639005e-04)	9.9957479e+04	2.9391376e+02
0.000110345    	(-6.0220423e-05 -2.3719105e-02 -6.0229731e-04)	9.9957669e+04	2.9391412e+02
0.000110779    	(-4.2290432e-04 -2.3299144e-02 -2.3567908e-04)	9.9958004e+04	2.9391559e+02
0.000111213    	(-3.8022066e-04 -2.2579870e-02 -1.3338462e-04)	9.9958279e+04	2.9391598e+02
0.000111647    	(-5.1743127e-04 -2.2094978e-02 -1.8301354e-04)	9.9958484e+04	2.9391705e+02
0.000112081    	(-4.0308159e-04 -2.1584056e-02 -1.2475065e-04)	9.9958733e+04	2.9391780e+02
0.000112515    	(-4.6686608e-04 -2.1237153e-02 -1.8893002e-04)	9.9958863e+04	2.9391807e+02
0.000112949    	(-6.3982624e-04 -2.0916354e-02 -3.1621418e-04)	9.9958989e+04	2.9391843e+02
0.000113384    	(-8.1159737e-04 -2.0632172e-02 -4.0036030e-04)	9.9959123e+04	2.9391879e+02
0.000113818    	(-9.4995152e-04 -2.0486709e-02 -6.3892923e-04)	9.9959299e+04	2.9391920e+02
0.000114252    	(-7.8974145e-04 -2.0115684e-02 -5.3916582e-04)	9.9959484e+04	2.9391979e+02
0.000114686    	(-9.3489450e-04 -1.9897090e-02 -4.9809727e-04)	9.9959592e+04	2.9392001e+02
0.00011512     	(-8.5720975e-04 -1.9484541e-02 -3.4037333e-04)	9.9959708e+04	2.9392048e+02
0.000115554    	(-7.2859579e-04 -1.9089059e-02 -2.6859989e-04)	9.9959812e+04	2.9392088e+02
0.000115988    	(-7.8175898e-04 -1.8837581e-02 -4.6052053e-04)	9.9959727e+04	2.9392040e+02
0.000116422    	(-8.9961089e-04 -1.8565455e-02 -7.0944676e-04)	9.9959613e+04	2.9392061e+02
0.000116857    	(-9.1654737e-04 -1.8260131e-02 -7.9715205e-04)	9.9959439e+04	2.9392001e+02
0.000117291    	(-1.0882852e-03 -1.8210602e-02 -1.1274553e-03)	9.9959316e+04	2.9391981e+02
0.000117725    	(-1.5275200e-03 -1.8299215e-02 -1.1366775e-03)	9.9959190e+04	2.9392003e+02
0.000118159    	(-2.0762714e-03 -1.8421640e-02 -1.0764904e-03)	9.9958760e+04	2.9391732e+02
0.000118593    	(-2.8999778e-03 -1.8913363e-02 -1.4571253e-03)	9.9958363e+04	2.9391653e+02
0.000119027    	(-3.4339498e-03 -1.9297729e-02 -9.2133302e-04)	9.9958331e+04	2.9391769e+02
0.000119461    	(-2.9195022e-03 -1.9179076e-02 -5.7856557e-04)	9.9958656e+04	2.9391847e+02
0.000119896    	(-2.7481802e-03 -1.9466914e-02 -1.8363597e-04)	9.9958449e+04	2.9391666e+02
0.00012033     	(-2.2422755e-03 -1.9777475e-02 -4.2993761e-05)	9.9958117e+04	2.9391539e+02
0.000120764    	(-1.5618012e-03 -2.0640037e-02 -6.1014871e-04)	9.9958139e+04	2.9391608e+02
0.000121198    	(-1.0257074e-03 -2.1670443e-02 -8.1886959e-04)	9.9957923e+04	2.9391380e+02
0.000121632    	(-6.7487353e-04 -2.2844156e-02 -4.1580441e-04)	9.9958338e+04	2.9391522e+02
0.000122066    	(-1.2079458e-03 -2.3973091e-02 -2.3042068e-05)	9.9958954e+04	2.9391536e+02
0.0001225      	(-1.0979276e-03 -2.5516699e-02 1.9408284e-05)	9.9959516e+04	2.9391493e+02
0.000122934    	(-6.4247818e-04 -2.7070024e-02 4.2617095e-04)	9.9960417e+04	2.9391693e+02
0.000123369    	(-7.4387446e-04 -2.8757644e-02 5.4382784e-04)	9.9961582e+04	2.9391834e+02
0.000123803    	(-1.0002722e-03 -3.0583560e-02 5.6144490e-04)	9.9962911e+04	2.9391984e+02
0.000124237    	(-7.4455780e-04 -3.2637984e-02 4.4863964e-04)	9.9964452e+04	2.9392179e+02
0.000124671    	(-4.9994859e-04 -3.4949759e-02 1.1679392e-04)	9.9966098e+04	2.9392320e+02
0.000125105    	(-7.5035291e-05 -3.7776208e-02 -9.0229259e-05)	9.9967821e+04	2.9392447e+02
0.000125539    	(2.1342660e-04 -4.0857407e-02 -1.3792645e-04)	9.9969651e+04	2.9392636e+02
0.000125973    	(3.8675938e-04 -4.4219343e-02 -1.1782516e-04)	9.9971854e+04	2.9392899e+02
0.000126407    	(2.9610840e-04 -4.7795510e-02 -2.2279523e-05)	9.9974371e+04	2.9393209e+02
0.000126842    	(-2.1897749e-05 -5.1568731e-02 -3.5421136e-05)	9.9977031e+04	2.9393494e+02
0.000127276    	(-2.6176706e-04 -5.5603954e-02 -4.3790568e-05)	9.9979842e+04	2.9393784e+02
0.00012771     	(-4.3008636e-04 -5.9871135e-02 -4.0336422e-05)	9.9982771e+04	2.9394081e+02
0.000128144    	(-5.6830024e-04 -6.4385645e-02 -2.8797696e-05)	9.9985820e+04	2.9394386e+02
0.000128578    	(-6.7170299e-04 -6.9157521e-02 -4.0001324e-06)	9.9989005e+04	2.9394701e+02
0.000129012    	(-7.3550453e-04 -7.4153961e-02 1.9569599e-05)	9.9992315e+04	2.9395025e+02
0.000129446    	(-7.5676258e-04 -7.9346180e-02 5.4541153e-05)	9.9995744e+04	2.9395357e+02
0.00012988     	(-7.5827806e-04 -8.4717826e-02 1.0003413e-04)	9.9999288e+04	2.9395698e+02
0.000130315    	(-7.4849946e-04 -9.0256043e-02 1.4962711e-04)	1.0000294e+05	2.9396047e+02
0.000130749    	(-7.2512032e-04 -9.5931525e-02 1.9946548e-04)	1.0000669e+05	2.9396402e+02
0.000131183    	(-6.8702559e-04 -1.0172456e-01 2.5142614e-04)	1.0001053e+05	2.9396764e+02
0.000131617    	(-6.2577797e-04 -1.0761286e-01 3.0003133e-04)	1.0001445e+05	2.9397130e+02
0.000132051    	(-5.3138108e-04 -1.1357583e-01 3.4363130e-04)	1.0001842e+05	2.9397499e+02
0.000132485    	(-3.9920687e-04 -1.1959199e-01 3.7884348e-04)	1.0002245e+05	2.9397872e+02
0.000132919    	(-2.2765873e-04 -1.2563607e-01 4.0666799e-04)	1.0002652e+05	2.9398245e+02
0.000133353    	(-2.7814587e-05 -1.3168505e-01 4.2526271e-04)	1.0003061e+05	2.9398619e+02
0.000133788    	(1.9153340e-04 -1.3770767e-01 4.3086649e-04)	1.0003472e+05	2.9398993e+02
0.000134222    	(4.2234895e-04 -1.4366608e-01 4.2105701e-04)	1.0003882e+05	2.9399364e+02
0.000134656    	(6.5787890e-04 -1.4952052e-01 3.9548805e-04)	1.0004290e+05	2.9399730e+02
0.00013509     	(8.8957239e-04 -1.5524043e-01 3.5505020e-04)	1.0004694e+05	2.9400091e+02
0.000135524    	(1.1097912e-03 -1.6080547e-01 3.0030481e-04)	1.0005092e+05	2.9400446e+02
0.000135958    	(1.3101751e-03 -1.6619172e-01 2.3233660e-04)	1.0005483e+05	2.9400792e+02
0.000136392    	(1.4830633e-03 -1.7136941e-01 1.5280762e-04)	1.0005866e+05	2.9401129e+02
0.000136826    	(1.6227762e-03 -1.7631270e-01 6.4332077e-05)	1.0006239e+05	2.9401456e+02
0.000137261    	(1.7256049e-03 -1.8100213e-01 -3.0107347e-05)	1.0006601e+05	2.9401772e+02
0.000137695    	(1.7887714e-03 -1.8542050e-01 -1.2911889e-04)	1.0006952e+05	2.9402076e+02
0.000138129    	(1.8107156e-03 -1.8955994e-01 -2.2980684e-04)	1.0007289e+05	2.9402368e+02
0.000138563    	(1.7900923e-03 -1.9340859e-01 -3.2817731e-04)	1.0007613e+05	2.9402648e+02
0.000138997    	(1.7290353e-03 -1.9695118e-01 -4.1975454e-04)	1.0007923e+05	2.9402915e+02
0.000139431    	(1.6269679e-03 -2.0018852e-01 -5.0497767e-04)	1.0008217e+05	2.9403169e+02
0.000139865    	(1.4838985e-03 -2.0312609e-01 -5.8023720e-04)	1.0008497e+05	2.9403411e+02
0.000140299    	(1.3045481e-03 -2.0576453e-01 -6.4175723e-04)	1.0008761e+05	2.9403640e+02
0.000140734    	(1.0941492e-03 -2.0810666e-01 -6.8699934e-04)	1.0009010e+05	2.9403856e+02
0.000141168    	(8.6259540e-04 -2.1016170e-01 -7.1319929e-04)	1.0009243e+05	2.9404059e+02
0.000141602    	(6.2087877e-04 -2.1193893e-01 -7.1711208e-04)	1.0009462e+05	2.9404251e+02
0.000142036    	(3.7858202e-04 -2.1344958e-01 -6.9939482e-04)	1.0009666e+05	2.9404430e+02
0.00014247     	(1.4260226e-04 -2.1470546e-01 -6.6354493e-04)	1.0009856e+05	2.9404598e+02
0.000142904    	(-8.1985754e-05 -2.1572143e-01 -6.1329736e-04)	1.0010033e+05	2.9404754e+02
0.000143338    	(-2.9049881e-04 -2.1651780e-01 -5.4974949e-04)	1.0010198e+05	2.9404901e+02