# Region type : patch inlet
# Faces  :     778
# Area   :     6.2874094e-05
# Time         	sum(phi)
0              	0.0000000e+00
4.5717e-07     	-1.1549821e-03
8.49646e-07    	-1.2211366e-03
1.24364e-06    	-1.3125816e-03
1.63803e-06    	-1.4093672e-03
2.03291e-06    	-1.5027604e-03
2.42816e-06    	-1.5963561e-03
2.82371e-06    	-1.6862542e-03
3.21946e-06    	-1.7744816e-03
3.61505e-06    	-1.8575903e-03
4.00998e-06    	-1.9329727e-03
4.40387e-06    	-1.9974654e-03
4.7967e-06     	-2.0498559e-03
5.18864e-06    	-2.0905356e-03
5.58023e-06    	-2.1192674e-03
5.97185e-06    	-2.1358665e-03
6.36351e-06    	-2.1390532e-03
6.75527e-06    	-2.1265733e-03
7.14718e-06    	-2.0962933e-03
7.53882e-06    	-2.0496476e-03
7.92949e-06    	-1.9899258e-03
8.31874e-06    	-1.9224060e-03
8.70593e-06    	-1.8527860e-03
9.0899e-06     	-1.7836683e-03
9.47011e-06    	-1.7174330e-03
9.84648e-06    	-1.6570963e-03
1.02199e-05    	-1.6070625e-03
1.05917e-05    	-1.5717757e-03
1.0963e-05     	-1.5512879e-03
1.13346e-05    	-1.5471933e-03
1.17062e-05    	-1.5575752e-03
1.20774e-05    	-1.5813928e-03
1.24478e-05    	-1.6182915e-03
1.28173e-05    	-1.6667313e-03
1.31859e-05    	-1.7249535e-03
1.35534e-05    	-1.7920780e-03
1.39201e-05    	-1.8647630e-03
1.42865e-05    	-1.9398584e-03
1.46533e-05    	-2.0150834e-03
1.50207e-05    	-2.0876532e-03
1.53888e-05    	-2.1536685e-03
1.57572e-05    	-2.2134843e-03
1.61256e-05    	-2.2666729e-03
1.6494e-05     	-2.3150791e-03
1.68601e-05    	-2.3595421e-03
1.72211e-05    	-2.4005533e-03
1.75788e-05    	-2.4386190e-03
1.79345e-05    	-2.4766085e-03
1.82901e-05    	-2.5154873e-03
1.86477e-05    	-2.5575169e-03
1.90072e-05    	-2.6041053e-03
1.9367e-05     	-2.6545273e-03
1.97243e-05    	-2.7077910e-03
2.00795e-05    	-2.7634540e-03
2.04346e-05    	-2.8219790e-03
2.07905e-05    	-2.8811340e-03
2.1148e-05     	-2.9418268e-03
2.15071e-05    	-3.0034772e-03
2.1868e-05     	-3.0662142e-03
2.22303e-05    	-3.1315660e-03
2.2579e-05     	-3.1972648e-03
2.29133e-05    	-3.2621220e-03
2.3245e-05     	-3.3284611e-03
2.35788e-05    	-3.3963496e-03
2.39155e-05    	-3.4662664e-03
2.42542e-05    	-3.5377495e-03
2.45977e-05    	-3.6122391e-03
2.49471e-05    	-3.6880499e-03
2.53016e-05    	-3.7651203e-03
2.56602e-05    	-3.8404179e-03
2.6023e-05     	-3.9137932e-03
2.63904e-05    	-3.9850859e-03
2.67625e-05    	-4.0541941e-03
2.71381e-05    	-4.1194437e-03
2.7516e-05     	-4.1800161e-03
2.78955e-05    	-4.2348072e-03
2.8276e-05     	-4.2821082e-03
2.86575e-05    	-4.3219707e-03
2.90394e-05    	-4.3548309e-03
2.94213e-05    	-4.3793465e-03
2.98032e-05    	-4.3948275e-03
3.01853e-05    	-4.3996184e-03
3.05675e-05    	-4.3937214e-03
3.09501e-05    	-4.3775138e-03
3.13328e-05    	-4.3528977e-03
3.17152e-05    	-4.3216122e-03
3.2097e-05     	-4.2850239e-03
3.24781e-05    	-4.2430909e-03
3.28581e-05    	-4.1957303e-03
3.32368e-05    	-4.1425403e-03
3.36142e-05    	-4.0841090e-03
3.39907e-05    	-4.0201277e-03
3.43668e-05    	-3.9503753e-03
3.47427e-05    	-3.8748295e-03
3.51186e-05    	-3.7934731e-03
3.54949e-05    	-3.7068523e-03
3.58718e-05    	-3.6171167e-03
3.62501e-05    	-3.5261432e-03
3.663e-05      	-3.4358783e-03
3.70114e-05    	-3.3482621e-03
3.73945e-05    	-3.2631625e-03
3.77803e-05    	-3.1831086e-03
3.8169e-05     	-3.1065983e-03
3.85599e-05    	-3.0349898e-03
3.89524e-05    	-2.9680492e-03
3.93459e-05    	-2.9066035e-03
3.97404e-05    	-2.8519414e-03
4.01358e-05    	-2.8051231e-03
4.05319e-05    	-2.7700513e-03
4.09283e-05    	-2.7486245e-03
4.1325e-05     	-2.7409300e-03
4.17217e-05    	-2.7479584e-03
4.2118e-05     	-2.7695612e-03
4.25138e-05    	-2.8044663e-03
4.29094e-05    	-2.8509237e-03
4.33049e-05    	-2.9071967e-03
4.37004e-05    	-2.9712581e-03
4.40961e-05    	-3.0414107e-03
4.44919e-05    	-3.1185146e-03
4.48874e-05    	-3.2025425e-03
4.52825e-05    	-3.2937249e-03
4.5677e-05     	-3.3917428e-03
4.60708e-05    	-3.4955574e-03
4.64642e-05    	-3.6050854e-03
4.68577e-05    	-3.7178528e-03
4.72515e-05    	-3.8324544e-03
4.76456e-05    	-3.9465731e-03
4.80396e-05    	-4.0567481e-03
4.84329e-05    	-4.1597560e-03
4.88202e-05    	-4.2500516e-03
4.92012e-05    	-4.3246893e-03
4.95796e-05    	-4.3789274e-03
4.99576e-05    	-4.4088482e-03
5.03377e-05    	-4.4106834e-03
5.07205e-05    	-4.3798978e-03
5.11062e-05    	-4.3161116e-03
5.14941e-05    	-4.2252899e-03
5.18825e-05    	-4.1145739e-03
5.22699e-05    	-3.9914944e-03
5.26565e-05    	-3.8637511e-03
5.30426e-05    	-3.7339510e-03
5.34287e-05    	-3.6044632e-03
5.38142e-05    	-3.4815384e-03
5.4197e-05     	-3.3720768e-03
5.45768e-05    	-3.2821034e-03
5.49545e-05    	-3.2152058e-03
5.53316e-05    	-3.1742743e-03
5.57078e-05    	-3.1582679e-03
5.6084e-05     	-3.1642228e-03
5.64617e-05    	-3.1859340e-03
5.68408e-05    	-3.2160286e-03
5.7221e-05     	-3.2493350e-03
5.76022e-05    	-3.2776683e-03
5.79838e-05    	-3.2957522e-03
5.83641e-05    	-3.3007809e-03
5.87426e-05    	-3.2907910e-03
5.91196e-05    	-3.2683285e-03
5.94938e-05    	-3.2343239e-03
5.98657e-05    	-3.1914250e-03
6.02358e-05    	-3.1407040e-03
6.06031e-05    	-3.0850355e-03
6.09647e-05    	-3.0271240e-03
6.13185e-05    	-2.9680260e-03
6.16687e-05    	-2.9102672e-03
6.20184e-05    	-2.8530989e-03
6.23694e-05    	-2.7962059e-03
6.27218e-05    	-2.7426974e-03
6.30767e-05    	-2.6900037e-03
6.34343e-05    	-2.6415844e-03
6.3794e-05     	-2.5979192e-03
6.41548e-05    	-2.5589339e-03
6.45156e-05    	-2.5261408e-03
6.48767e-05    	-2.4980363e-03
6.52378e-05    	-2.4729620e-03
6.55989e-05    	-2.4466605e-03
6.59602e-05    	-2.4193140e-03
6.63225e-05    	-2.3895402e-03
6.66864e-05    	-2.3566134e-03
6.70519e-05    	-2.3207472e-03
6.74189e-05    	-2.2818801e-03
6.77871e-05    	-2.2404497e-03
6.81553e-05    	-2.1990123e-03
6.85248e-05    	-2.1608862e-03
6.88936e-05    	-2.1265481e-03
6.92595e-05    	-2.0976228e-03
6.96229e-05    	-2.0756428e-03
6.99863e-05    	-2.0602644e-03
7.0348e-05     	-2.0509702e-03
7.07052e-05    	-2.0460551e-03
7.10593e-05    	-2.0466168e-03
7.1417e-05     	-2.0498298e-03
7.17797e-05    	-2.0545392e-03
7.21478e-05    	-2.0612585e-03
7.25236e-05    	-2.0689962e-03
7.29055e-05    	-2.0798637e-03
7.32923e-05    	-2.0960134e-03
7.36829e-05    	-2.1188880e-03
7.40759e-05    	-2.1501517e-03
7.4471e-05     	-2.1891993e-03
7.48651e-05    	-2.2370154e-03
7.52577e-05    	-2.2914417e-03
7.56493e-05    	-2.3518535e-03
7.60406e-05    	-2.4158126e-03
7.64319e-05    	-2.4819574e-03
7.68238e-05    	-2.5478583e-03
7.72163e-05    	-2.6112288e-03
7.76092e-05    	-2.6709273e-03
7.80028e-05    	-2.7258765e-03
7.83975e-05    	-2.7752048e-03
7.87934e-05    	-2.8186762e-03
7.91906e-05    	-2.8554322e-03
7.95892e-05    	-2.8839529e-03
7.99895e-05    	-2.9023835e-03
8.03907e-05    	-2.9080624e-03
8.07919e-05    	-2.9009289e-03
8.11924e-05    	-2.8808370e-03
8.15923e-05    	-2.8478421e-03
8.19922e-05    	-2.8041713e-03
8.23925e-05    	-2.7530510e-03
8.27935e-05    	-2.6982346e-03
8.31953e-05    	-2.6433982e-03
8.3598e-05     	-2.5922478e-03
8.40016e-05    	-2.5478639e-03
8.44063e-05    	-2.5124223e-03
8.48121e-05    	-2.4871456e-03
8.5219e-05     	-2.4744995e-03
8.56262e-05    	-2.4794829e-03
8.60332e-05    	-2.5038646e-03
8.64394e-05    	-2.5482494e-03
8.6844e-05     	-2.6130432e-03
8.72465e-05    	-2.6975514e-03
8.76468e-05    	-2.8002212e-03
8.80446e-05    	-2.9197295e-03
8.84399e-05    	-3.0526447e-03
8.88327e-05    	-3.1964945e-03
8.92234e-05    	-3.3481169e-03
8.96118e-05    	-3.5032922e-03
8.9998e-05     	-3.6588251e-03
9.03828e-05    	-3.8128801e-03
9.07667e-05    	-3.9631014e-03
9.11502e-05    	-4.1069154e-03
9.15336e-05    	-4.2431189e-03
9.19172e-05    	-4.3689963e-03
9.23012e-05    	-4.4825182e-03
9.26858e-05    	-4.5824971e-03
9.30714e-05    	-4.6682119e-03
9.34576e-05    	-4.7384227e-03
9.38442e-05    	-4.7904248e-03
9.42312e-05    	-4.8210208e-03
9.46182e-05    	-4.8294837e-03
9.50055e-05    	-4.8148686e-03
9.53935e-05    	-4.7771273e-03
9.57822e-05    	-4.7186903e-03
9.61718e-05    	-4.6413656e-03
9.65622e-05    	-4.5491507e-03
9.69533e-05    	-4.4470413e-03
9.7345e-05     	-4.3402007e-03
9.77373e-05    	-4.2342766e-03
9.81303e-05    	-4.1345075e-03
9.85242e-05    	-4.0452112e-03
9.89189e-05    	-3.9691683e-03
9.93143e-05    	-3.9067577e-03
9.97098e-05    	-3.8582000e-03
0.000100105    	-3.8234030e-03
0.000100501    	-3.8032913e-03
0.000100896    	-3.7990088e-03
0.00010129     	-3.8104641e-03
0.000101684    	-3.8375930e-03
0.000102076    	-3.8775200e-03
0.000102463    	-3.9292775e-03
0.000102843    	-3.9889000e-03
0.00010321     	-4.0533981e-03
0.000103571    	-4.1203625e-03
0.000103929    	-4.1888083e-03
0.000104289    	-4.2575945e-03
0.000104652    	-4.3253524e-03
0.000105016    	-4.3926231e-03
0.000105383    	-4.4579826e-03
0.00010575     	-4.5204503e-03
0.000106118    	-4.5795912e-03
0.000106487    	-4.6361374e-03
0.000106855    	-4.6906987e-03
0.000107222    	-4.7431861e-03
0.000107585    	-4.7939027e-03
0.000107945    	-4.8430611e-03
0.000108305    	-4.8904874e-03
0.000108666    	-4.9371305e-03
0.000109028    	-4.9828702e-03
0.000109392    	-5.0255786e-03
0.000109757    	-5.0631419e-03
0.000110119    	-5.0941160e-03
0.000110471    	-5.1161781e-03
0.000110818    	-5.1272280e-03
0.000111166    	-5.1270295e-03
0.000111516    	-5.1136880e-03
0.00011187     	-5.0868910e-03
0.000112226    	-5.0445966e-03
0.000112588    	-4.9837405e-03
0.000112957    	-4.9036620e-03
0.000113331    	-4.8044287e-03
0.000113708    	-4.6885434e-03
0.000114086    	-4.5590857e-03
0.000114464    	-4.4194540e-03
0.000114841    	-4.2732824e-03
0.000115217    	-4.1240225e-03
0.000115593    	-3.9747040e-03
0.000115968    	-3.8264382e-03
0.000116343    	-3.6806162e-03
0.000116721    	-3.5386192e-03
0.000117101    	-3.4021160e-03
0.000117484    	-3.2755876e-03
0.000117869    	-3.1635228e-03
0.000118257    	-3.0676628e-03
0.000118648    	-2.9904254e-03
0.000119042    	-2.9319448e-03
0.000119436    	-2.8924755e-03
0.000119829    	-2.8691466e-03
0.000120221    	-2.8602872e-03
0.000120612    	-2.8610421e-03
0.000121003    	-2.8691388e-03
0.000121394    	-2.8830024e-03
0.000121786    	-2.9019270e-03
0.00012218     	-2.9247649e-03
0.000122575    	-2.9530580e-03
0.000122972    	-2.9884922e-03
0.000123372    	-3.0314483e-03
0.000123773    	-3.0825329e-03
0.000124176    	-3.1407733e-03
0.000124578    	-3.2046985e-03
0.000124981    	-3.2731238e-03
0.000125384    	-3.3454997e-03
0.000125788    	-3.4206172e-03
0.000126192    	-3.4977562e-03
0.000126595    	-3.5738125e-03
0.000126999    	-3.6458199e-03
0.000127403    	-3.7124931e-03
0.000127807    	-3.7727569e-03
0.000128211    	-3.8259508e-03
0.000128614    	-3.8734941e-03
0.000129016    	-3.9161825e-03
0.000129419    	-3.9558000e-03
0.00012982     	-3.9931260e-03
0.000130222    	-4.0299930e-03
0.000130623    	-4.0692008e-03
0.000131024    	-4.1134224e-03
0.000131424    	-4.1630287e-03
0.000131824    	-4.2189712e-03
0.000132223    	-4.2825506e-03
0.00013262     	-4.3520221e-03
0.000133016    	-4.4243259e-03
0.000133411    	-4.4977306e-03
0.000133805    	-4.5695339e-03
0.000134198    	-4.6386360e-03
0.00013459     	-4.7057373e-03
0.000134983    	-4.7708884e-03
0.000135377    	-4.8327857e-03
0.000135771    	-4.8911851e-03
0.000136166    	-4.9461887e-03
0.000136561    	-4.9988357e-03
0.000136957    	-5.0499019e-03
0.000137353    	-5.0999779e-03
0.000137748    	-5.1505746e-03
0.000138143    	-5.2004715e-03
0.000138537    	-5.2479660e-03
0.000138929    	-5.2941029e-03
0.000139319    	-5.3370480e-03
0.000139706    	-5.3746942e-03
0.000140091    	-5.4071616e-03
0.000140475    	-5.4314390e-03
0.000140857    	-5.4482514e-03
0.000141238    	-5.4553506e-03
0.000141618    	-5.4523049e-03
0.000141998    	-5.4373635e-03
0.000142377    	-5.4064571e-03
0.000142755    	-5.3575706e-03
0.000143133    	-5.2894697e-03
0.000143512    	-5.2023468e-03
0.000143889    	-5.0959554e-03
0.000144267    	-4.9718330e-03
0.000144644    	-4.8338820e-03
0.000145019    	-4.6883741e-03
0.000145392    	-4.5404250e-03
0.00014576     	-4.3963125e-03
0.000146127    	-4.2613785e-03
0.000146492    	-4.1400015e-03
0.000146853    	-4.0341105e-03
0.000147213    	-3.9467060e-03
0.000147573    	-3.8810449e-03
0.000147932    	-3.8377486e-03
0.000148292    	-3.8147734e-03
0.000148652    	-3.8088684e-03
0.000149013    	-3.8167000e-03
0.000149375    	-3.8343469e-03
0.000149737    	-3.8574760e-03
0.000150097    	-3.8847408e-03
0.000150454    	-3.9144924e-03
0.00015081     	-3.9457518e-03
0.000151166    	-3.9785605e-03
0.000151524    	-4.0137732e-03
0.000151883    	-4.0514650e-03
0.000152244    	-4.0921571e-03
0.000152608    	-4.1348439e-03
0.000152974    	-4.1800290e-03
0.000153341    	-4.2288347e-03
0.00015371     	-4.2788594e-03
0.00015408     	-4.3308897e-03
0.000154451    	-4.3826809e-03
0.00015482     	-4.4346001e-03
0.000155189    	-4.4844426e-03
0.000155556    	-4.5315497e-03
0.000155923    	-4.5755779e-03
0.00015629     	-4.6120446e-03
0.000156657    	-4.6412864e-03
0.000157025    	-4.6615228e-03
0.000157393    	-4.6723551e-03
0.000157762    	-4.6731023e-03
0.000158131    	-4.6622440e-03
0.000158499    	-4.6395527e-03
0.000158866    	-4.6062054e-03
0.000159233    	-4.5627182e-03
0.000159601    	-4.5099955e-03
0.000159972    	-4.4487643e-03
0.000160344    	-4.3807780e-03
0.000160718    	-4.3054734e-03
0.000161096    	-4.2231413e-03
0.000161476    	-4.1335204e-03
0.000161858    	-4.0366863e-03
0.000162243    	-3.9318082e-03
0.000162629    	-3.8173445e-03
0.000163016    	-3.6915720e-03
0.000163404    	-3.5549953e-03
0.000163793    	-3.4071333e-03
0.000164183    	-3.2513867e-03
0.000164572    	-3.0902229e-03
0.000164962    	-2.9286405e-03
0.00016535     	-2.7731802e-03
0.000165738    	-2.6312670e-03
0.000166125    	-2.5084340e-03
0.000166511    	-2.4102284e-03
0.000166896    	-2.3395469e-03
0.000167282    	-2.2960366e-03
0.000167668    	-2.2797119e-03
0.000168055    	-2.2912935e-03
0.000168445    	-2.3308083e-03
0.000168837    	-2.3934662e-03
0.000169231    	-2.4757161e-03
0.000169627    	-2.5728482e-03
0.000170024    	-2.6782755e-03
0.000170423    	-2.7861644e-03
0.000170823    	-2.8915409e-03
0.000171224    	-2.9904502e-03
0.000171627    	-3.0799975e-03
0.000172031    	-3.1582303e-03
0.000172437    	-3.2249743e-03
0.000172844    	-3.2800782e-03
0.000173252    	-3.3236729e-03
0.00017366     	-3.3569280e-03
0.000174069    	-3.3813660e-03
0.000174478    	-3.3986064e-03
0.000174887    	-3.4110526e-03
0.000175295    	-3.4207846e-03
0.000175703    	-3.4278693e-03
0.000176109    	-3.4323121e-03
0.000176515    	-3.4342720e-03
0.000176919    	-3.4326151e-03
0.000177321    	-3.4262979e-03
0.000177721    	-3.4143570e-03
0.000178119    	-3.3994154e-03
0.000178515    	-3.3818928e-03
0.000178908    	-3.3630712e-03
0.0001793      	-3.3469218e-03
0.000179689    	-3.3348554e-03
0.000180078    	-3.3282203e-03
0.000180466    	-3.3279089e-03
0.000180855    	-3.3339686e-03
0.000181243    	-3.3473691e-03
0.000181631    	-3.3702939e-03
0.000182018    	-3.4015399e-03
0.000182405    	-3.4410795e-03
0.00018279     	-3.4894232e-03
0.000183174    	-3.5439884e-03
0.000183556    	-3.6038000e-03
0.000183936    	-3.6658576e-03
0.000184315    	-3.7281758e-03
0.000184693    	-3.7877475e-03
0.000185071    	-3.8403872e-03
0.000185447    	-3.8822865e-03
0.00018582     	-3.9122352e-03
0.000186191    	-3.9273498e-03
0.000186557    	-3.9241023e-03
0.000186918    	-3.9013650e-03
0.000187276    	-3.8578157e-03
0.000187632    	-3.7904830e-03
0.000187988    	-3.6957008e-03
0.000188342    	-3.5755940e-03
0.000188697    	-3.4352895e-03
0.000189051    	-3.2788364e-03
0.000189406    	-3.1146949e-03
0.000189759    	-2.9493420e-03
0.000190112    	-2.7854956e-03
0.000190466    	-2.6295154e-03
0.000190819    	-2.4862661e-03
0.000191174    	-2.3575952e-03
0.000191529    	-2.2448804e-03
0.000191884    	-2.1481715e-03
0.000192241    	-2.0667556e-03
0.000192601    	-2.0000763e-03
0.000192961    	-1.9472064e-03
0.000193324    	-1.9075120e-03
0.000193688    	-1.8782634e-03
0.000194053    	-1.8594367e-03
0.000194419    	-1.8495389e-03
0.000194786    	-1.8478061e-03
0.000195152    	-1.8550974e-03
0.000195517    	-1.8724267e-03
0.000195878    	-1.8990559e-03
0.000196235    	-1.9331189e-03
0.00019659     	-1.9750330e-03
0.000196944    	-2.0253338e-03
0.000197297    	-2.0827799e-03
0.000197651    	-2.1443693e-03
0.000198007    	-2.2090120e-03
0.000198364    	-2.2763897e-03
0.000198724    	-2.3469812e-03
0.000199085    	-2.4217152e-03
0.000199449    	-2.5017119e-03
0.000199815    	-2.5856736e-03
0.000200182    	-2.6726179e-03
0.000200552    	-2.7603601e-03
0.000200922    	-2.8488506e-03
0.000201295    	-2.9384216e-03
0.000201669    	-3.0285970e-03
0.000202043    	-3.1178863e-03
0.000202418    	-3.2063833e-03
0.000202793    	-3.2934328e-03
0.000203168    	-3.3796329e-03
0.000203543    	-3.4640507e-03
0.000203917    	-3.5452689e-03
0.000204291    	-3.6226388e-03
0.000204664    	-3.6956590e-03
0.000205038    	-3.7626752e-03
0.000205413    	-3.8210746e-03
0.000205789    	-3.8682208e-03
0.000206166    	-3.9017256e-03
0.000206545    	-3.9194304e-03
0.000206926    	-3.9179603e-03
0.000207308    	-3.8897281e-03
0.000207691    	-3.8311367e-03
0.000208075    	-3.7406134e-03
0.00020846     	-3.6179065e-03
0.000208845    	-3.4663072e-03
0.000209231    	-3.2923644e-03
0.000209617    	-3.1026724e-03
0.000210003    	-2.9054032e-03
0.000210389    	-2.7073138e-03
0.000210775    	-2.5156203e-03
0.000211161    	-2.3339015e-03
0.000211547    	-2.1656592e-03
0.000211933    	-2.0134975e-03
0.000212319    	-1.8780499e-03
0.000212707    	-1.7599302e-03
0.000213094    	-1.6602848e-03
0.000213483    	-1.5760807e-03
0.000213872    	-1.5107493e-03
0.000214262    	-1.4578577e-03
0.000214653    	-1.4185904e-03
0.000215044    	-1.3907321e-03
0.000215435    	-1.3701176e-03
0.000215827    	-1.3541658e-03
0.00021622     	-1.3393806e-03
0.000216613    	-1.3260447e-03
0.000217005    	-1.3126676e-03
0.000217398    	-1.3003652e-03
0.000217791    	-1.2867260e-03
0.000218184    	-1.2695387e-03
0.000218575    	-1.2525575e-03
0.000218967    	-1.2327129e-03
0.000219357    	-1.2143901e-03
0.000219748    	-1.1981240e-03
0.000220138    	-1.1857157e-03
0.000220528    	-1.1775800e-03
0.000220919    	-1.1742084e-03
0.00022131     	-1.1780362e-03
0.000221701    	-1.1911375e-03
0.000222092    	-1.2135650e-03
0.000222482    	-1.2459661e-03
0.000222872    	-1.2867705e-03
0.000223262    	-1.3348418e-03
0.000223652    	-1.3877789e-03
0.000224042    	-1.4445102e-03
0.000224433    	-1.5043942e-03
0.000224825    	-1.5659374e-03
0.000225217    	-1.6271255e-03
0.00022561     	-1.6875865e-03
0.000226002    	-1.7460634e-03
0.000226394    	-1.8027417e-03
0.000226786    	-1.8556892e-03
0.000227176    	-1.9027734e-03
0.000227566    	-1.9428349e-03
0.000227955    	-1.9751480e-03
0.000228341    	-1.9966615e-03
0.000228726    	-2.0058414e-03
0.000229108    	-2.0010334e-03
0.000229487    	-1.9814909e-03
0.000229864    	-1.9464222e-03
0.000230238    	-1.8963127e-03
0.00023061     	-1.8317371e-03
0.000230978    	-1.7541183e-03
0.000231344    	-1.6641503e-03
0.000231706    	-1.5646156e-03
0.000232066    	-1.4585863e-03
0.000232425    	-1.3504051e-03
0.000232783    	-1.2427109e-03
0.000233138    	-1.1391825e-03
0.000233492    	-1.0432552e-03
0.000233847    	-9.5592224e-04
0.000234203    	-8.7851457e-04
0.000234561    	-8.1237251e-04
0.000234921    	-7.5942056e-04
0.000235283    	-7.1996506e-04
0.000235646    	-6.9361520e-04
0.000236009    	-6.7812468e-04
0.000236362    	-6.7448878e-04
0.000236707    	-6.7990239e-04
0.00023705     	-6.9314640e-04
0.000237394    	-7.1233509e-04
0.000237741    	-7.3669452e-04
0.000238089    	-7.6418116e-04
0.000238444    	-7.9409171e-04
0.000238803    	-8.2687407e-04
0.000239161    	-8.6064411e-04
0.00023952     	-8.9399320e-04
0.000239878    	-9.2411365e-04
0.000240234    	-9.5156041e-04
0.00024059     	-9.7423184e-04
0.000240946    	-9.9446555e-04
0.000241302    	-1.0115029e-03
0.000241661    	-1.0278288e-03
0.000242021    	-1.0438768e-03
0.000242382    	-1.0632860e-03
0.000242745    	-1.0883558e-03
0.00024311     	-1.1190346e-03
0.000243476    	-1.1569380e-03
0.000243843    	-1.2036642e-03
0.000244212    	-1.2609938e-03
0.000244582    	-1.3303275e-03
0.000244955    	-1.4112993e-03
0.000245329    	-1.5035975e-03
0.000245705    	-1.6067794e-03
0.000246083    	-1.7175050e-03
0.00024646     	-1.8339823e-03
0.000246838    	-1.9542166e-03
0.000247216    	-2.0772625e-03
0.00024759     	-2.1990800e-03
0.000247963    	-2.3178460e-03
0.000248338    	-2.4306571e-03
0.000248714    	-2.5349254e-03
0.000249091    	-2.6289322e-03
0.000249471    	-2.7106690e-03
0.000249852    	-2.7783484e-03
0.000250236    	-2.8296183e-03
0.000250618    	-2.8618325e-03
0.000250999    	-2.8725889e-03
0.000251378    	-2.8599471e-03
0.000251753    	-2.8213837e-03
0.000252125    	-2.7589999e-03
0.000252497    	-2.6731848e-03
0.00025287     	-2.5634496e-03
0.000253244    	-2.4310631e-03
0.00025362     	-2.2782311e-03
0.000254       	-2.1087953e-03
0.000254386    	-1.9291655e-03
0.000254777    	-1.7470157e-03
0.000255172    	-1.5692926e-03
0.00025557     	-1.4020148e-03
0.000255969    	-1.2518285e-03
0.00025637     	-1.1231678e-03
0.000256771    	-1.0164329e-03
0.000257173    	-9.3185624e-04
0.000257575    	-8.6773427e-04
0.000257977    	-8.2137562e-04
0.000258379    	-7.8893771e-04
0.00025878     	-7.6450702e-04
0.00025918     	-7.4627778e-04
0.00025958     	-7.2990356e-04
0.000259978    	-7.1581896e-04
0.000260376    	-7.0083920e-04
0.000260772    	-6.8606797e-04
0.000261168    	-6.7078291e-04
0.000261562    	-6.5673694e-04
0.000261955    	-6.4683156e-04
0.000262347    	-6.4343053e-04
0.000262739    	-6.4896031e-04
0.000263129    	-6.6597102e-04
0.000263519    	-6.9638899e-04
0.000263909    	-7.4041352e-04
0.000264298    	-7.9910670e-04
0.000264688    	-8.7127360e-04
0.000265076    	-9.5395120e-04
0.000265463    	-1.0452389e-03
0.000265849    	-1.1431277e-03
0.000266232    	-1.2443811e-03
0.000266614    	-1.3467974e-03
0.000266996    	-1.4481748e-03
0.000267379    	-1.5467617e-03
0.000267761    	-1.6406244e-03
0.000268144    	-1.7281298e-03
0.000268528    	-1.8079980e-03
0.000268911    	-1.8794267e-03
0.000269294    	-1.9426497e-03
0.000269675    	-1.9968567e-03
0.000270056    	-2.0412504e-03
0.000270435    	-2.0764259e-03
0.000270813    	-2.1023632e-03
0.000271191    	-2.1196478e-03
0.000271569    	-2.1269391e-03
0.000271948    	-2.1217262e-03
0.000272328    	-2.1031661e-03
0.000272709    	-2.0703935e-03
0.000273089    	-2.0238175e-03
0.00027347     	-1.9617790e-03
0.000273851    	-1.8817653e-03
0.000274232    	-1.7773330e-03
0.000274613    	-1.6417912e-03
0.000274992    	-1.4753651e-03
0.000275368    	-1.2782281e-03
0.000275742    	-1.0575843e-03
0.000276112    	-8.2035626e-04
0.000276478    	-5.7645790e-04
0.000276832    	-3.4033884e-04
0.000277177    	-1.1955934e-04
0.000277518    	8.3205314e-05
0.000277858    	2.6519680e-04
0.000278199    	4.2355277e-04
0.000278543    	5.5567627e-04
0.000278889    	6.5950174e-04
0.000279239    	7.3585292e-04
0.000279591    	7.8742316e-04
0.000279945    	8.1636886e-04
0.000280299    	8.2614278e-04
0.000280652    	8.2113259e-04
0.000281003    	8.0451315e-04
0.000281353    	7.8106815e-04
0.000281704    	7.5420178e-04
0.000282054    	7.2712409e-04
0.000282406    	7.0181559e-04
0.000282759    	6.7976153e-04
0.000283114    	6.6242747e-04
0.000283469    	6.4921295e-04
0.000283825    	6.4082361e-04
0.000284181    	6.3658344e-04
0.000284538    	6.3542941e-04
0.000284897    	6.3676709e-04
0.000285259    	6.3921136e-04
0.000285623    	6.4120902e-04
0.000285988    	6.4046278e-04
0.000286355    	6.3448310e-04
0.000286723    	6.2366381e-04
0.000287092    	6.0677841e-04
0.000287464    	5.7953497e-04
0.000287839    	5.4296092e-04
0.000288216    	4.9882522e-04
0.000288597    	4.4627875e-04
0.00028898     	3.8652749e-04
0.000289365    	3.1953263e-04
0.000289751    	2.4716894e-04
0.000290138    	1.7129084e-04
0.000290526    	9.4877928e-05
0.000290915    	1.8631490e-05
0.000291304    	-5.4212127e-05
0.000291695    	-1.2169952e-04
0.000292086    	-1.8290826e-04
0.000292479    	-2.3640510e-04
0.000292871    	-2.8097281e-04
0.000293264    	-3.1498043e-04
0.000293656    	-3.3685457e-04
0.000294048    	-3.4505963e-04
0.00029444     	-3.3816600e-04
0.000294831    	-3.1206612e-04
0.000295222    	-2.6598951e-04
0.000295613    	-1.9800990e-04
0.000296003    	-1.0894201e-04
0.000296394    	-1.3751868e-06
0.000296785    	1.2226432e-04
0.000297176    	2.5524845e-04
0.000297569    	3.9231981e-04
0.000297962    	5.3188444e-04
0.000298355    	6.6827296e-04
0.000298749    	7.9830154e-04
0.000299142    	9.2000751e-04
0.000299535    	1.0321373e-03
0.000299926    	1.1348257e-03
0.000300315    	1.2273909e-03
0.000300703    	1.3109292e-03
0.000301089    	1.3874377e-03
0.000301475    	1.4590372e-03
0.00030186     	1.5281673e-03
0.000302245    	1.5972912e-03
0.000302629    	1.6648739e-03
0.000303012    	1.7312719e-03
0.000303393    	1.7955447e-03
0.000303773    	1.8571195e-03
0.000304151    	1.9139693e-03
0.000304529    	1.9639545e-03
0.000304908    	2.0041679e-03
0.000305287    	2.0299297e-03
0.000305667    	2.0393331e-03
0.000306048    	2.0311256e-03
0.000306431    	2.0040297e-03
0.000306814    	1.9571598e-03
0.000307199    	1.8900211e-03
0.000307585    	1.8033708e-03
0.000307971    	1.6984841e-03
0.000308358    	1.5786626e-03
0.000308745    	1.4437743e-03
0.000309134    	1.2987743e-03
0.000309522    	1.1467248e-03
0.00030991     	9.8994826e-04
0.000310298    	8.3232324e-04
0.000310684    	6.7473225e-04
0.000311069    	5.1872851e-04
0.000311453    	3.6516350e-04
0.000311836    	2.1534142e-04
0.000312219    	7.2541365e-05
0.000312602    	-6.1358952e-05
0.000312985    	-1.8550460e-04
0.000313369    	-3.0066070e-04
0.000313754    	-4.0643403e-04
0.00031414     	-5.0198986e-04
0.000314526    	-5.8676361e-04
0.000314913    	-6.5910767e-04
0.000315299    	-7.1980261e-04
0.000315685    	-7.6664708e-04
0.00031607     	-7.9918110e-04
0.000316453    	-8.1571865e-04
0.000316833    	-8.1497356e-04
0.000317211    	-7.9444458e-04
0.000317585    	-7.5250794e-04
0.000317957    	-6.8870614e-04
0.000318326    	-6.0308409e-04
0.000318693    	-4.9539861e-04
0.000319061    	-3.6516559e-04
0.000319428    	-2.1335216e-04
0.000319796    	-4.3191781e-05
0.000320164    	1.4205133e-04
0.000320532    	3.3688604e-04
0.000320901    	5.3426156e-04
0.000321269    	7.2559404e-04
0.000321635    	9.0301774e-04
0.000322       	1.0629341e-03
0.000322362    	1.2019013e-03
0.000322724    	1.3176017e-03
0.000323083    	1.4081958e-03
0.000323441    	1.4746844e-03
0.000323798    	1.5182181e-03
0.000324155    	1.5420072e-03
0.000324514    	1.5502619e-03
0.000324874    	1.5469730e-03
0.000325235    	1.5327104e-03
0.000325596    	1.5134922e-03
0.000325958    	1.4891608e-03
0.000326319    	1.4636027e-03
0.000326681    	1.4390737e-03
0.000327043    	1.4133908e-03
0.000327404    	1.3909301e-03
0.000327765    	1.3673494e-03
0.000328127    	1.3456199e-03
0.00032849     	1.3245374e-03
0.000328853    	1.3020333e-03
0.000329214    	1.2788820e-03
0.000329571    	1.2505509e-03
0.000329923    	1.2178894e-03
0.000330275    	1.1763794e-03
0.000330632    	1.1242487e-03
0.000330992    	1.0590384e-03
0.000331356    	9.8099625e-04
0.000331725    	8.8825184e-04
0.000332096    	7.8392503e-04
0.000332469    	6.6780935e-04
0.000332845    	5.4080431e-04
0.000333223    	4.0173047e-04
0.000333602    	2.5399459e-04
0.000333983    	1.0013451e-04
0.000334366    	-5.6989492e-05
0.000334751    	-2.1148574e-04
0.000335136    	-3.6078354e-04
0.000335522    	-5.0162994e-04
0.000335909    	-6.3297692e-04
0.000336296    	-7.5253212e-04
0.000336683    	-8.5941148e-04
0.000337071    	-9.5172816e-04
0.000337459    	-1.0271678e-03
0.000337847    	-1.0849358e-03
0.000338235    	-1.1235429e-03
0.000338624    	-1.1418324e-03
0.000339013    	-1.1390470e-03
0.000339402    	-1.1146924e-03
0.000339792    	-1.0682355e-03
0.000340183    	-1.0015696e-03
0.000340574    	-9.1652878e-04
0.000340967    	-8.1493376e-04
0.00034136     	-7.0112922e-04
0.000341753    	-5.7810267e-04
0.000342147    	-4.4927105e-04
0.00034254     	-3.1732654e-04
0.000342933    	-1.8298142e-04
0.000343324    	-4.8555386e-05
0.000343714    	8.5368734e-05
0.000344102    	2.1865949e-04
0.00034449     	3.5028326e-04
0.00034488     	4.8080582e-04
0.000345271    	6.0984556e-04
0.000345664    	7.3664926e-04
0.000346059    	8.5986017e-04
0.000346456    	9.7659151e-04
0.000346854    	1.0850396e-03
0.000347254    	1.1808560e-03
0.000347655    	1.2611889e-03
0.000348055    	1.3234207e-03
0.000348455    	1.3669916e-03
0.000348854    	1.3891095e-03
0.000349252    	1.3894162e-03
0.000349649    	1.3696267e-03
0.000350045    	1.3316974e-03
0.00035044     	1.2784332e-03
0.000350834    	1.2112119e-03
0.000351229    	1.1322080e-03
0.000351623    	1.0427323e-03
0.000352015    	9.4423233e-04
0.000352406    	8.3785396e-04
0.000352795    	7.2732437e-04
0.000353183    	6.1525107e-04
0.000353568    	5.0185910e-04
0.000353952    	3.9003984e-04
0.000354334    	2.8247839e-04
0.000354715    	1.8072616e-04
0.000355095    	8.5947601e-05
0.000355474    	-3.0748378e-06
0.000355851    	-8.4250471e-05
0.000356225    	-1.6220893e-04
0.000356596    	-2.3413320e-04
0.000356964    	-3.0294437e-04
0.000357329    	-3.6780385e-04
0.000357694    	-4.3177551e-04
0.000358058    	-4.9394220e-04
0.000358424    	-5.5581146e-04
0.00035879     	-6.1690675e-04
0.000359159    	-6.7979920e-04
0.000359528    	-7.4118999e-04
0.000359899    	-8.0145042e-04
0.000360271    	-8.5709471e-04
0.000360643    	-9.0755946e-04
0.000361015    	-9.5058507e-04
0.000361386    	-9.8469810e-04
0.000361757    	-1.0085607e-03
0.000362127    	-1.0205836e-03
0.000362497    	-1.0206698e-03
0.000362867    	-1.0061308e-03
0.000363237    	-9.7686292e-04
0.000363608    	-9.3325644e-04
0.000363977    	-8.7578599e-04
0.000364341    	-8.0715364e-04
0.000364696    	-7.3125677e-04
0.000365049    	-6.5112375e-04
0.000365401    	-5.6953278e-04
0.000365755    	-4.8898029e-04
0.00036611     	-4.1166598e-04
0.000366468    	-3.3957894e-04
0.00036683     	-2.7274057e-04