# Region type : patch inlet
# Faces  :     460
# Area   :     7.5346137e-05
# Time         	sum(phi)
0              	0.0000000e+00
4.57971e-07    	-3.4886161e-07
8.33602e-07    	-1.2745884e-06
1.20923e-06    	-2.5097747e-06
1.58486e-06    	-3.9577052e-06
1.96049e-06    	-5.5408812e-06
2.33612e-06    	-7.2254426e-06
2.71175e-06    	-8.9911286e-06
3.08738e-06    	-1.0820828e-05
3.46301e-06    	-1.2698636e-05
3.83864e-06    	-1.4610673e-05
4.21427e-06    	-1.6542559e-05
4.5899e-06     	-1.8479420e-05
4.96553e-06    	-2.0409677e-05
5.34117e-06    	-2.2325288e-05
5.7168e-06     	-2.4222930e-05
6.09243e-06    	-2.6103683e-05
6.46806e-06    	-2.7970944e-05
6.84369e-06    	-2.9830860e-05
7.21932e-06    	-3.1689977e-05
7.59495e-06    	-3.3554512e-05
7.97058e-06    	-3.5430688e-05
8.34621e-06    	-3.7323960e-05
8.72184e-06    	-3.9238861e-05
9.09747e-06    	-4.1178780e-05
9.4731e-06     	-4.3146394e-05
9.84873e-06    	-4.5143664e-05
1.02244e-05    	-4.7171523e-05
1.06e-05       	-4.9230784e-05
1.09756e-05    	-5.1321963e-05
1.13512e-05    	-5.3445052e-05
1.17269e-05    	-5.5599961e-05
1.21025e-05    	-5.7786146e-05
1.24781e-05    	-6.0003563e-05
1.28538e-05    	-6.2251468e-05
1.32294e-05    	-6.4529463e-05
1.3605e-05     	-6.6838295e-05
1.39807e-05    	-6.9178777e-05
1.43563e-05    	-7.1551043e-05
1.47319e-05    	-7.3955031e-05
1.51076e-05    	-7.6390881e-05
1.54832e-05    	-7.8858926e-05
1.58588e-05    	-8.1358747e-05
1.62344e-05    	-8.3890573e-05
1.66101e-05    	-8.6454908e-05
1.69857e-05    	-8.9052189e-05
1.73613e-05    	-9.1682796e-05
1.7737e-05     	-9.4346412e-05
1.81126e-05    	-9.7042843e-05
1.84882e-05    	-9.9772703e-05
1.88639e-05    	-1.0253626e-04
1.92395e-05    	-1.0533313e-04
1.96151e-05    	-1.0816304e-04
1.99907e-05    	-1.1102618e-04
2.03664e-05    	-1.1392202e-04
2.0742e-05     	-1.1684978e-04
2.11176e-05    	-1.1980886e-04
2.14933e-05    	-1.2279909e-04
2.18689e-05    	-1.2582018e-04
2.22445e-05    	-1.2887126e-04
2.26202e-05    	-1.3195098e-04
2.29958e-05    	-1.3505908e-04
2.33714e-05    	-1.3819503e-04
2.3747e-05     	-1.4135887e-04
2.41227e-05    	-1.4454911e-04
2.44983e-05    	-1.4776452e-04
2.48739e-05    	-1.5100353e-04
2.52496e-05    	-1.5426433e-04
2.56252e-05    	-1.5754521e-04
2.60008e-05    	-1.6084476e-04
2.63765e-05    	-1.6416200e-04
2.67521e-05    	-1.6749569e-04
2.71277e-05    	-1.7084465e-04
2.75034e-05    	-1.7420711e-04
2.7879e-05     	-1.7758139e-04
2.82546e-05    	-1.8096635e-04
2.86302e-05    	-1.8436130e-04
2.90059e-05    	-1.8776557e-04
2.93815e-05    	-1.9117862e-04
2.97571e-05    	-1.9459970e-04
3.01328e-05    	-1.9802754e-04
3.05084e-05    	-2.0146124e-04
3.0884e-05     	-2.0490013e-04
3.12597e-05    	-2.0834436e-04
3.16353e-05    	-2.1179495e-04
3.20109e-05    	-2.1525118e-04
3.23865e-05    	-2.1871171e-04
3.27622e-05    	-2.2217710e-04
3.31378e-05    	-2.2564722e-04
3.35134e-05    	-2.2912241e-04
3.38891e-05    	-2.3260356e-04
3.42647e-05    	-2.3609231e-04
3.46403e-05    	-2.3958957e-04
3.5016e-05     	-2.4309619e-04
3.53916e-05    	-2.4661312e-04
3.57672e-05    	-2.5014055e-04
3.61428e-05    	-2.5367896e-04
3.65185e-05    	-2.5722851e-04
3.68941e-05    	-2.6078910e-04
3.72697e-05    	-2.6436217e-04
3.76454e-05    	-2.6794991e-04
3.8021e-05     	-2.7155332e-04
3.83966e-05    	-2.7517233e-04
3.87723e-05    	-2.7880688e-04
3.91479e-05    	-2.8245704e-04
3.95235e-05    	-2.8612329e-04
3.98992e-05    	-2.8980510e-04
4.02748e-05    	-2.9350236e-04
4.06504e-05    	-2.9721513e-04
4.1026e-05     	-3.0094282e-04
4.14017e-05    	-3.0468622e-04
4.17773e-05    	-3.0844719e-04
4.21529e-05    	-3.1222591e-04
4.25286e-05    	-3.1602172e-04
4.29042e-05    	-3.1983362e-04
4.32798e-05    	-3.2366132e-04
4.36555e-05    	-3.2750358e-04
4.40311e-05    	-3.3135952e-04
4.44067e-05    	-3.3522676e-04
4.47823e-05    	-3.3910424e-04
4.5158e-05     	-3.4299287e-04
4.55336e-05    	-3.4689504e-04
4.59092e-05    	-3.5081010e-04
4.62849e-05    	-3.5473546e-04
4.66605e-05    	-3.5867015e-04
4.70361e-05    	-3.6261265e-04
4.74118e-05    	-3.6656240e-04
4.77874e-05    	-3.7052127e-04
4.8163e-05     	-3.7449282e-04
4.85386e-05    	-3.7847924e-04
4.89143e-05    	-3.8248002e-04
4.92899e-05    	-3.8649337e-04
4.96655e-05    	-3.9051787e-04
5.00412e-05    	-3.9454858e-04
5.04168e-05    	-3.9858205e-04
5.07924e-05    	-4.0261862e-04
5.11681e-05    	-4.0666081e-04
5.15437e-05    	-4.1071250e-04
5.19193e-05    	-4.1477973e-04
5.2295e-05     	-4.1886294e-04
5.26706e-05    	-4.2296112e-04
5.30462e-05    	-4.2707129e-04
5.34218e-05    	-4.3119274e-04
5.37975e-05    	-4.3532397e-04
5.41731e-05    	-4.3946237e-04
5.45487e-05    	-4.4360622e-04
5.49244e-05    	-4.4775516e-04
5.53e-05       	-4.5191204e-04
5.56756e-05    	-4.5607818e-04
5.60513e-05    	-4.6025154e-04
5.64269e-05    	-4.6443065e-04
5.68025e-05    	-4.6861613e-04
5.71781e-05    	-4.7280216e-04
5.75538e-05    	-4.7698724e-04
5.79294e-05    	-4.8117675e-04
5.8305e-05     	-4.8539136e-04
5.86807e-05    	-4.8963090e-04
5.90563e-05    	-4.9389183e-04
5.94319e-05    	-4.9817137e-04
5.98076e-05    	-5.0245793e-04
6.01832e-05    	-5.0674396e-04
6.05588e-05    	-5.1102438e-04
6.09344e-05    	-5.1530026e-04
6.13101e-05    	-5.1957160e-04
6.16857e-05    	-5.2383819e-04
6.20613e-05    	-5.2810512e-04
6.2437e-05     	-5.3238207e-04
6.28126e-05    	-5.3667543e-04
6.31882e-05    	-5.4098773e-04
6.35639e-05    	-5.4532272e-04
6.39395e-05    	-5.4967799e-04
6.43151e-05    	-5.5404281e-04
6.46908e-05    	-5.5840657e-04
6.50664e-05    	-5.6275860e-04
6.5442e-05     	-5.6709256e-04
6.58176e-05    	-5.7140899e-04
6.61933e-05    	-5.7571654e-04
6.65689e-05    	-5.8003055e-04
6.69445e-05    	-5.8436004e-04
6.73202e-05    	-5.8870602e-04
6.76958e-05    	-5.9306586e-04
6.80714e-05    	-5.9743499e-04
6.84471e-05    	-6.0180651e-04
6.88227e-05    	-6.0616627e-04
6.91983e-05    	-6.1051262e-04
6.95739e-05    	-6.1485138e-04
6.99496e-05    	-6.1918349e-04
7.03252e-05    	-6.2351330e-04
7.07008e-05    	-6.2784653e-04
7.10765e-05    	-6.3218678e-04
7.14521e-05    	-6.3653774e-04
7.18277e-05    	-6.4089394e-04
7.22034e-05    	-6.4525215e-04
7.2579e-05     	-6.4960768e-04
7.29546e-05    	-6.5394973e-04
7.33302e-05    	-6.5827753e-04
7.37059e-05    	-6.6259788e-04
7.40815e-05    	-6.6691958e-04
7.44571e-05    	-6.7124998e-04
7.48328e-05    	-6.7559972e-04
7.52084e-05    	-6.7996850e-04
7.5584e-05     	-6.8434213e-04
7.59597e-05    	-6.8870802e-04
7.63353e-05    	-6.9306337e-04
7.67109e-05    	-6.9740233e-04
7.70866e-05    	-7.0173236e-04
7.74622e-05    	-7.0606214e-04
7.78378e-05    	-7.1040175e-04
7.82134e-05    	-7.1475744e-04
7.85891e-05    	-7.1913061e-04
7.89647e-05    	-7.2351442e-04
7.93403e-05    	-7.2790190e-04
7.9716e-05     	-7.3229039e-04
8.00916e-05    	-7.3667980e-04
8.04672e-05    	-7.4107523e-04
8.08429e-05    	-7.4547741e-04
8.12185e-05    	-7.4988235e-04
8.15941e-05    	-7.5428849e-04
8.19697e-05    	-7.5869540e-04
8.23454e-05    	-7.6310196e-04
8.2721e-05     	-7.6751030e-04
8.30966e-05    	-7.7193033e-04
8.34723e-05    	-7.7636314e-04
8.38479e-05    	-7.8080531e-04
8.42235e-05    	-7.8525289e-04
8.45992e-05    	-7.8905900e-04
8.49748e-05    	-7.9355135e-04
8.53504e-05    	-7.9797228e-04
8.5726e-05     	-8.0240906e-04
8.61017e-05    	-8.0683762e-04
8.64773e-05    	-8.1126529e-04
8.68529e-05    	-8.1569674e-04
8.72286e-05    	-8.2012707e-04
8.76042e-05    	-8.2456307e-04
8.79798e-05    	-8.2900875e-04
8.83555e-05    	-8.3346107e-04
8.87311e-05    	-8.3791496e-04
8.91067e-05    	-8.4236649e-04
8.94824e-05    	-8.4681204e-04
8.9858e-05     	-8.5124792e-04
9.02336e-05    	-8.5487685e-04
9.06092e-05    	-8.5934156e-04
9.09849e-05    	-8.6374994e-04
9.13605e-05    	-8.6817550e-04
9.17361e-05    	-8.7261028e-04
9.21118e-05    	-8.7704731e-04
9.24874e-05    	-8.8148702e-04
9.2863e-05     	-8.8592635e-04
9.32387e-05    	-8.9036133e-04
9.36143e-05    	-8.9479080e-04
9.39899e-05    	-8.9921592e-04
9.43655e-05    	-9.0363733e-04
9.47412e-05    	-9.0805880e-04
9.51168e-05    	-9.1248251e-04
9.54924e-05    	-9.1690704e-04
9.58681e-05    	-9.2081956e-04
9.62437e-05    	-9.2529148e-04
9.66193e-05    	-9.2970946e-04
9.6995e-05     	-9.3413272e-04
9.73706e-05    	-9.3855584e-04
9.77462e-05    	-9.4296716e-04
9.81218e-05    	-9.4738077e-04
9.84975e-05    	-9.5180762e-04
9.88731e-05    	-9.5622619e-04
9.92487e-05    	-9.6063424e-04
9.96244e-05    	-9.6505052e-04
0.0001         	-9.6946577e-04
0.000100376    	-9.7386442e-04
0.000100751    	-9.7825951e-04
0.000101127    	-9.8265431e-04
0.000101503    	-9.8440146e-04
0.000101878    	-9.8896784e-04
0.000102254    	-9.9332034e-04
0.00010263     	-9.9769156e-04
0.000103005    	-1.0021020e-03
0.000103381    	-1.0065078e-03
0.000103757    	-1.0108992e-03
0.000104132    	-1.0152827e-03
0.000104508    	-1.0196607e-03
0.000104884    	-1.0240279e-03
0.000105259    	-1.0283840e-03
0.000105635    	-1.0327335e-03
0.000106011    	-1.0370775e-03
0.000106386    	-1.0414153e-03
0.000106762    	-1.0457489e-03
0.000107137    	-1.0493480e-03
0.000107513    	-1.0537129e-03
0.000107889    	-1.0580215e-03
0.000108264    	-1.0623381e-03
0.00010864     	-1.0666594e-03
0.000109016    	-1.0709727e-03
0.000109391    	-1.0752748e-03
0.000109767    	-1.0795679e-03
0.000110143    	-1.0838530e-03
0.000110518    	-1.0881298e-03
0.000110894    	-1.0923992e-03
0.00011127     	-1.0966620e-03
0.000111645    	-1.1009191e-03
0.000112021    	-1.1051710e-03
0.000112397    	-1.1094169e-03
0.000112772    	-1.1134038e-03
0.000113148    	-1.1176674e-03
0.000113524    	-1.1218995e-03
0.000113899    	-1.1261262e-03
0.000114275    	-1.1303442e-03
0.000114651    	-1.1345564e-03
0.000115026    	-1.1387633e-03
0.000115402    	-1.1429634e-03
0.000115778    	-1.1471541e-03
0.000116153    	-1.1513358e-03
0.000116529    	-1.1555140e-03
0.000116905    	-1.1596863e-03
0.00011728     	-1.1638507e-03
0.000117656    	-1.1680093e-03
0.000118032    	-1.1721649e-03
0.000118407    	-1.1761446e-03
0.000118783    	-1.1803236e-03
0.000119159    	-1.1845131e-03
0.000119534    	-1.1886832e-03
0.00011991     	-1.1928178e-03
0.000120285    	-1.1969008e-03
0.000120661    	-1.2009595e-03
0.000121037    	-1.2050609e-03
0.000121412    	-1.2092154e-03
0.000121788    	-1.2133716e-03
0.000122164    	-1.2175011e-03
0.000122539    	-1.2215794e-03
0.000122915    	-1.2256112e-03
0.000123291    	-1.2296583e-03
0.000123666    	-1.2337794e-03
0.000124042    	-1.2379128e-03
0.000124418    	-1.2420186e-03
0.000124793    	-1.2460845e-03
0.000125169    	-1.2500856e-03
0.000125545    	-1.2540847e-03
0.00012592     	-1.2581604e-03
0.000126296    	-1.2622647e-03
0.000126672    	-1.2663509e-03
0.000127047    	-1.2703986e-03
0.000127423    	-1.2743810e-03
0.000127799    	-1.2783397e-03
0.000128174    	-1.2823729e-03
0.00012855     	-1.2864508e-03
0.000128926    	-1.2905190e-03
0.000129301    	-1.2945503e-03
0.000129677    	-1.2985193e-03
0.000130053    	-1.3024431e-03
0.000130428    	-1.3064302e-03
0.000130804    	-1.3104859e-03
0.00013118     	-1.3145400e-03
0.000131555    	-1.3185590e-03
0.000131931    	-1.3225258e-03
0.000132307    	-1.3264326e-03
0.000132682    	-1.3303768e-03
0.000133058    	-1.3344024e-03
0.000133434    	-1.3384381e-03
0.000133809    	-1.3424455e-03
0.000134185    	-1.3464097e-03
0.00013456     	-1.3503104e-03
0.000134936    	-1.3542130e-03
0.000135312    	-1.3582070e-03
0.000135687    	-1.3622305e-03
0.000136063    	-1.3662318e-03
0.000136439    	-1.3701931e-03
0.000136814    	-1.3741063e-03
0.00013719     	-1.3779971e-03
0.000137566    	-1.3819465e-03
0.000137941    	-1.3859394e-03
0.000138317    	-1.3899307e-03
0.000138693    	-1.3938947e-03
0.000139068    	-1.3978243e-03
0.000139444    	-1.4017281e-03
0.00013982     	-1.4056364e-03
0.000140195    	-1.4095796e-03
0.000140571    	-1.4135398e-03
0.000140947    	-1.4174949e-03
0.000141322    	-1.4214229e-03
0.000141698    	-1.4253359e-03
0.000142074    	-1.4292417e-03
0.000142449    	-1.4331521e-03
0.000142825    	-1.4370749e-03
0.000143201    	-1.4410053e-03
0.000143576    	-1.4449322e-03
0.000143952    	-1.4488508e-03
0.000144328    	-1.4527606e-03
0.000144703    	-1.4566664e-03
0.000145079    	-1.4605741e-03
0.000145455    	-1.4644851e-03
0.00014583     	-1.4683968e-03
0.000146206    	-1.4723069e-03
0.000146582    	-1.4762144e-03
0.000146957    	-1.4801244e-03
0.000147333    	-1.4840337e-03
0.000147708    	-1.4879383e-03
0.000148084    	-1.4918420e-03
0.00014846     	-1.4957443e-03
0.000148835    	-1.4996439e-03
0.000149211    	-1.5035414e-03
0.000149587    	-1.5074376e-03
0.000149962    	-1.5113331e-03
0.000150338    	-1.5152279e-03
0.000150714    	-1.5191216e-03
0.000151089    	-1.5230140e-03
0.000151465    	-1.5269052e-03
0.000151841    	-1.5307954e-03
0.000152216    	-1.5346845e-03
0.000152592    	-1.5385649e-03
0.000152968    	-1.5424462e-03
0.000153343    	-1.5463299e-03
0.000153719    	-1.5502106e-03
0.000154095    	-1.5540887e-03
0.00015447     	-1.5579649e-03
0.000154846    	-1.5618387e-03
0.000155222    	-1.5657104e-03
0.000155597    	-1.5695798e-03
0.000155973    	-1.5734471e-03
0.000156349    	-1.5773121e-03
0.000156724    	-1.5811741e-03
0.0001571      	-1.5850330e-03
0.000157476    	-1.5888887e-03
0.000157851    	-1.5927406e-03
0.000158227    	-1.5965922e-03
0.000158603    	-1.6004394e-03
0.000158978    	-1.6042800e-03
0.000159354    	-1.6081158e-03
0.00015973     	-1.6119471e-03
0.000160105    	-1.6157732e-03
0.000160481    	-1.6195945e-03
0.000160856    	-1.6234110e-03
0.000161232    	-1.6272224e-03
0.000161608    	-1.6310288e-03
0.000161983    	-1.6348301e-03
0.000162359    	-1.6386262e-03
0.000162735    	-1.6424168e-03
0.00016311     	-1.6462019e-03
0.000163486    	-1.6499811e-03
0.000163862    	-1.6537435e-03
0.000164237    	-1.6575072e-03
0.000164613    	-1.6612685e-03
0.000164989    	-1.6650224e-03
0.000165364    	-1.6687696e-03
0.00016574     	-1.6725107e-03
0.000166116    	-1.6762455e-03
0.000166491    	-1.6799741e-03
0.000166867    	-1.6836964e-03
0.000167243    	-1.6874126e-03
0.000167618    	-1.6911234e-03
0.000167994    	-1.6948258e-03
0.00016837     	-1.6985190e-03
0.000168745    	-1.7022064e-03
0.000169121    	-1.7058888e-03
0.000169497    	-1.7095623e-03
0.000169872    	-1.7132262e-03
0.000170248    	-1.7168833e-03
0.000170624    	-1.7205331e-03
0.000170999    	-1.7241730e-03
0.000171375    	-1.7278032e-03
0.000171751    	-1.7314259e-03
0.000172126    	-1.7350400e-03
0.000172502    	-1.7386444e-03
0.000172878    	-1.7422377e-03
0.000173253    	-1.7458214e-03
0.000173629    	-1.7493949e-03
0.000174005    	-1.7529576e-03
0.00017438     	-1.7565105e-03
0.000174756    	-1.7600527e-03
0.000175131    	-1.7635796e-03
0.000175507    	-1.7670968e-03
0.000175883    	-1.7706075e-03
0.000176258    	-1.7741040e-03
0.000176634    	-1.7775882e-03
0.00017701     	-1.7810613e-03
0.000177385    	-1.7845188e-03
0.000177761    	-1.7879671e-03
0.000178137    	-1.7913993e-03
0.000178512    	-1.7948214e-03
0.000178888    	-1.7982278e-03
0.000179264    	-1.8016172e-03
0.000179639    	-1.8049951e-03
0.000180015    	-1.8083510e-03
0.000180391    	-1.8116960e-03
0.000180766    	-1.8150192e-03
0.000181142    	-1.8183275e-03
0.000181518    	-1.8216227e-03
0.000181893    	-1.8248927e-03
0.000182269    	-1.8281512e-03
0.000182645    	-1.8313875e-03
0.00018302     	-1.8346026e-03
0.000183396    	-1.8378068e-03
0.000183772    	-1.8409813e-03
0.000184147    	-1.8441413e-03
0.000184523    	-1.8472811e-03
0.000184899    	-1.8503919e-03
0.000185274    	-1.8534920e-03
0.00018565     	-1.8565615e-03
0.000186026    	-1.8596081e-03
0.000186401    	-1.8626329e-03
0.000186777    	-1.8656312e-03
0.000187153    	-1.8686129e-03
0.000187528    	-1.8715715e-03
0.000187904    	-1.8744939e-03
0.000188279    	-1.8774040e-03
0.000188655    	-1.8802816e-03
0.000189031    	-1.8831277e-03
0.000189406    	-1.8859621e-03
0.000189782    	-1.8887548e-03
0.000190158    	-1.8915216e-03
0.000190533    	-1.8942721e-03
0.000190909    	-1.8969776e-03
0.000191285    	-1.8996628e-03
0.00019166     	-1.9023235e-03
0.000192036    	-1.9049402e-03
0.000192412    	-1.9075411e-03
0.000192787    	-1.9101053e-03
0.000193163    	-1.9126301e-03
0.000193539    	-1.9151418e-03
0.000193914    	-1.9176060e-03
0.00019429     	-1.9200360e-03
0.000194666    	-1.9224486e-03
0.000195041    	-1.9248081e-03
0.000195417    	-1.9271409e-03
0.000195793    	-1.9294465e-03
0.000196168    	-1.9316987e-03
0.000196544    	-1.9339323e-03
0.00019692     	-1.9361256e-03
0.000197295    	-1.9382725e-03
0.000197671    	-1.9404032e-03
0.000198047    	-1.9424801e-03
0.000198422    	-1.9445202e-03
0.000198798    	-1.9465358e-03
0.000199174    	-1.9484952e-03
0.000199549    	-1.9504255e-03
0.000199925    	-1.9523224e-03
0.000200301    	-1.9541650e-03
0.000200676    	-1.9559821e-03
0.000201052    	-1.9577580e-03
0.000201427    	-1.9594840e-03
0.000201803    	-1.9611824e-03
0.000202179    	-1.9628373e-03
0.000202554    	-1.9644449e-03
0.00020293     	-1.9660226e-03
0.000203306    	-1.9675459e-03
0.000203681    	-1.9690335e-03
0.000204057    	-1.9704923e-03
0.000204433    	-1.9719094e-03
0.000204808    	-1.9732831e-03
0.000205184    	-1.9746243e-03
0.00020556     	-1.9759190e-03
0.000205935    	-1.9771664e-03
0.000206311    	-1.9783785e-03
0.000206687    	-1.9795517e-03
0.000207062    	-1.9806834e-03
0.000207438    	-1.9817800e-03
0.000207814    	-1.9828354e-03
0.000208189    	-1.9838465e-03
0.000208565    	-1.9848170e-03
0.000208941    	-1.9857467e-03
0.000209316    	-1.9866391e-03
0.000209692    	-1.9874922e-03
0.000210068    	-1.9883071e-03
0.000210443    	-1.9890833e-03
0.000210819    	-1.9898194e-03
0.000211195    	-1.9905162e-03
0.00021157     	-1.9911744e-03
0.000211946    	-1.9917942e-03
0.000212322    	-1.9923764e-03
0.000212697    	-1.9929206e-03
0.000213073    	-1.9934270e-03
0.000213449    	-1.9938947e-03
0.000213824    	-1.9943253e-03
0.0002142      	-1.9947177e-03
0.000214576    	-1.9950721e-03
0.000214951    	-1.9953899e-03
0.000215327    	-1.9956728e-03
0.000215702    	-1.9959185e-03
0.000216078    	-1.9961309e-03
0.000216454    	-1.9963051e-03
0.000216829    	-1.9964464e-03
0.000217205    	-1.9965502e-03
0.000217581    	-1.9966206e-03
0.000217956    	-1.9966541e-03
0.000218332    	-1.9966541e-03
0.000218708    	-1.9966183e-03
0.000219083    	-1.9965488e-03
0.000219459    	-1.9964447e-03
0.000219835    	-1.9963063e-03
0.00022021     	-1.9961351e-03
0.000220586    	-1.9959280e-03
0.000220962    	-1.9956901e-03
0.000221337    	-1.9954196e-03
0.000221713    	-1.9951177e-03
0.000222089    	-1.9947846e-03
0.000222464    	-1.9944200e-03
0.00022284     	-1.9940249e-03
0.000223216    	-1.9935997e-03
0.000223591    	-1.9931458e-03
0.000223967    	-1.9926628e-03
0.000224343    	-1.9921529e-03
0.000224718    	-1.9916164e-03
0.000225094    	-1.9910555e-03
0.00022547     	-1.9905904e-03
0.000225845    	-1.9899608e-03
0.000226221    	-1.9893051e-03
0.000226597    	-1.9886070e-03
0.000226972    	-1.9878837e-03
0.000227348    	-1.9871420e-03
0.000227724    	-1.9863809e-03
0.000228099    	-1.9856011e-03
0.000228475    	-1.9847920e-03
0.00022885     	-1.9839539e-03
0.000229226    	-1.9830907e-03
0.000229602    	-1.9822070e-03
0.000229977    	-1.9813039e-03
0.000230353    	-1.9803791e-03
0.000230729    	-1.9794298e-03
0.000231104    	-1.9786435e-03
0.00023148     	-1.9776117e-03
0.000231856    	-1.9765789e-03
0.000232231    	-1.9755196e-03
0.000232607    	-1.9744386e-03
0.000232983    	-1.9733373e-03
0.000233358    	-1.9722141e-03
0.000233734    	-1.9710665e-03
0.00023411     	-1.9698946e-03
0.000234485    	-1.9687011e-03
0.000234861    	-1.9674873e-03
0.000235237    	-1.9662536e-03
0.000235612    	-1.9649990e-03
0.000235988    	-1.9637234e-03
0.000236364    	-1.9624260e-03
0.000236739    	-1.9611076e-03
0.000237115    	-1.9597701e-03
0.000237491    	-1.9584132e-03
0.000237866    	-1.9570367e-03
0.000238242    	-1.9556407e-03
0.000238618    	-1.9542256e-03
0.000238993    	-1.9527928e-03
0.000239369    	-1.9513427e-03
0.000239745    	-1.9498750e-03
0.00024012     	-1.9483900e-03
0.000240496    	-1.9468880e-03
0.000240872    	-1.9453690e-03
0.000241247    	-1.9438339e-03
0.000241623    	-1.9422830e-03
0.000241998    	-1.9407199e-03
0.000242374    	-1.9391877e-03
0.00024275     	-1.9375792e-03
0.000243125    	-1.9359722e-03
0.000243501    	-1.9343516e-03
0.000243877    	-1.9327239e-03
0.000244252    	-1.9310824e-03
0.000244628    	-1.9294193e-03
0.000245004    	-1.9277326e-03
0.000245379    	-1.9260345e-03
0.000245755    	-1.9243350e-03
0.000246131    	-1.9226383e-03
0.000246506    	-1.9209336e-03
0.000246882    	-1.9191998e-03
0.000247258    	-1.9174382e-03
0.000247633    	-1.9156690e-03
0.000248009    	-1.9140792e-03
0.000248385    	-1.9122078e-03
0.00024876     	-1.9103914e-03
0.000249136    	-1.9085814e-03
0.000249512    	-1.9067684e-03
0.000249887    	-1.9049522e-03
0.000250263    	-1.9031124e-03
0.000250639    	-1.9012567e-03
0.000251014    	-1.8993848e-03
0.00025139     	-1.8975054e-03
0.000251766    	-1.8956137e-03
0.000252141    	-1.8937227e-03
0.000252517    	-1.8918251e-03
0.000252893    	-1.8899139e-03
0.000253268    	-1.8879884e-03
0.000253644    	-1.8864512e-03
0.00025402     	-1.8844035e-03
0.000254395    	-1.8824305e-03
0.000254771    	-1.8804380e-03
0.000255147    	-1.8784354e-03
0.000255522    	-1.8764241e-03
0.000255898    	-1.8744002e-03
0.000256273    	-1.8723667e-03
0.000256649    	-1.8703240e-03
0.000257025    	-1.8682708e-03
0.0002574      	-1.8662053e-03
0.000257776    	-1.8641313e-03
0.000258152    	-1.8620524e-03
0.000258527    	-1.8599631e-03
0.000258903    	-1.8578624e-03
0.000259279    	-1.8559495e-03
0.000259654    	-1.8537882e-03
0.00026003     	-1.8516603e-03
0.000260406    	-1.8495209e-03
0.000260781    	-1.8473673e-03
0.000261157    	-1.8452029e-03
0.000261533    	-1.8430310e-03
0.000261908    	-1.8408529e-03
0.000262284    	-1.8386649e-03
0.00026266     	-1.8364653e-03
0.000263035    	-1.8342538e-03
0.000263411    	-1.8320399e-03
0.000263787    	-1.8298371e-03
0.000264162    	-1.8276024e-03
0.000264538    	-1.8253451e-03
0.000264914    	-1.8230875e-03
0.000265289    	-1.8208525e-03
0.000265665    	-1.8185964e-03
0.000266041    	-1.8163057e-03
0.000266416    	-1.8140108e-03
0.000266792    	-1.8117276e-03
0.000267168    	-1.8094464e-03
0.000267543    	-1.8072014e-03
0.000267919    	-1.8049105e-03
0.000268295    	-1.8026397e-03
0.00026867     	-1.8003742e-03
0.000269046    	-1.7981187e-03
0.000269421    	-1.7958691e-03
0.000269797    	-1.7935968e-03
0.000270173    	-1.7913063e-03
0.000270548    	-1.7890087e-03
0.000270924    	-1.7867134e-03
0.0002713      	-1.7844240e-03
0.000271675    	-1.7821398e-03
0.000272051    	-1.7798552e-03
0.000272427    	-1.7775719e-03
0.000272802    	-1.7752926e-03
0.000273178    	-1.7730112e-03
0.000273554    	-1.7707245e-03
0.000273929    	-1.7684338e-03
0.000274305    	-1.7661377e-03
0.000274681    	-1.7638437e-03
0.000275056    	-1.7615479e-03
0.000275432    	-1.7592494e-03
0.000275808    	-1.7569375e-03
0.000276183    	-1.7546213e-03
0.000276559    	-1.7522909e-03
0.000276935    	-1.7499487e-03
0.00027731     	-1.7476109e-03
0.000277686    	-1.7452869e-03
0.000278062    	-1.7429575e-03
0.000278437    	-1.7406110e-03
0.000278813    	-1.7382637e-03
0.000279189    	-1.7359147e-03
0.000279564    	-1.7335698e-03
0.00027994     	-1.7312215e-03
0.000280316    	-1.7288672e-03
0.000280691    	-1.7265067e-03
0.000281067    	-1.7241470e-03
0.000281443    	-1.7217925e-03
0.000281818    	-1.7194349e-03
0.000282194    	-1.7170689e-03
0.000282569    	-1.7146905e-03
0.000282945    	-1.7123045e-03
0.000283321    	-1.7099208e-03
0.000283696    	-1.7075342e-03
0.000284072    	-1.7051473e-03
0.000284448    	-1.7027578e-03
0.000284823    	-1.7003652e-03
0.000285199    	-1.6979713e-03
0.000285575    	-1.6955764e-03
0.00028595     	-1.6931811e-03
0.000286326    	-1.6907850e-03
0.000286702    	-1.6883892e-03
0.000287077    	-1.6859965e-03
0.000287453    	-1.6835995e-03
0.000287829    	-1.6811967e-03
0.000288204    	-1.6787891e-03
0.00028858     	-1.6763764e-03
0.000288956    	-1.6739623e-03
0.000289331    	-1.6715491e-03
0.000289707    	-1.6691390e-03
0.000290083    	-1.6667284e-03
0.000290458    	-1.6643176e-03
0.000290834    	-1.6619077e-03
0.00029121     	-1.6594901e-03
0.000291585    	-1.6570702e-03
0.000291961    	-1.6546499e-03
0.000292337    	-1.6522284e-03
0.000292712    	-1.6498053e-03
0.000293088    	-1.6473853e-03
0.000293464    	-1.6449677e-03
0.000293839    	-1.6425501e-03
0.000294215    	-1.6401308e-03
0.000294591    	-1.6377089e-03
0.000294966    	-1.6352845e-03
0.000295342    	-1.6328573e-03
0.000295718    	-1.6304287e-03
0.000296093    	-1.6279993e-03
0.000296469    	-1.6255701e-03
0.000296844    	-1.6231420e-03
0.00029722     	-1.6207148e-03
0.000297596    	-1.6182878e-03
0.000297971    	-1.6158615e-03
0.000298347    	-1.6134359e-03
0.000298723    	-1.6110114e-03
0.000299098    	-1.6085874e-03
0.000299474    	-1.6061636e-03
0.00029985     	-1.6037508e-03
0.000300225    	-1.6013369e-03
0.000300601    	-1.5989263e-03
0.000300977    	-1.5965200e-03
0.000301352    	-1.5941162e-03
0.000301728    	-1.5917046e-03
0.000302104    	-1.5893089e-03
0.000302479    	-1.5869117e-03
0.000302855    	-1.5845152e-03
0.000303231    	-1.5821241e-03
0.000303606    	-1.5797397e-03
0.000303982    	-1.5773607e-03
0.000304358    	-1.5749891e-03
0.000304733    	-1.5726252e-03
0.000305109    	-1.5702661e-03
0.000305485    	-1.5679101e-03
0.00030586     	-1.5655588e-03
0.000306236    	-1.5632119e-03
0.000306612    	-1.5608698e-03
0.000306987    	-1.5585340e-03
0.000307363    	-1.5562053e-03
0.000307739    	-1.5538769e-03
0.000308114    	-1.5515616e-03
0.00030849     	-1.5492534e-03
0.000308866    	-1.5469466e-03
0.000309241    	-1.5446461e-03
0.000309617    	-1.5423557e-03
0.000309992    	-1.5400750e-03
0.000310368    	-1.5378039e-03
0.000310744    	-1.5355421e-03
0.000311119    	-1.5332860e-03
0.000311495    	-1.5310331e-03
0.000311871    	-1.5287840e-03
0.000312246    	-1.5265442e-03
0.000312622    	-1.5243139e-03
0.000312998    	-1.5220934e-03
0.000313373    	-1.5198823e-03
0.000313749    	-1.5176768e-03
0.000314125    	-1.5154754e-03
0.0003145      	-1.5132794e-03
0.000314876    	-1.5110902e-03
0.000315252    	-1.5089108e-03
0.000315627    	-1.5067418e-03
0.000316003    	-1.5045807e-03
0.000316379    	-1.5024261e-03
0.000316754    	-1.5002767e-03
0.00031713     	-1.4981322e-03
0.000317506    	-1.4959943e-03
0.000317881    	-1.4938643e-03
0.000318257    	-1.4917436e-03
0.000318633    	-1.4896328e-03
0.000319008    	-1.4875296e-03
0.000319384    	-1.4854340e-03
0.00031976     	-1.4833447e-03
0.000320135    	-1.4812589e-03
0.000320511    	-1.4791766e-03
0.000320887    	-1.4770999e-03
0.000321262    	-1.4750306e-03
0.000321638    	-1.4729693e-03
0.000322014    	-1.4709163e-03
0.000322389    	-1.4688695e-03
0.000322765    	-1.4668273e-03
0.00032314     	-1.4647884e-03
0.000323516    	-1.4627541e-03
0.000323892    	-1.4607253e-03
0.000324267    	-1.4587030e-03
0.000324643    	-1.4566881e-03
0.000325019    	-1.4546807e-03
0.000325394    	-1.4526792e-03
0.00032577     	-1.4506818e-03
0.000326146    	-1.4486874e-03
0.000326521    	-1.4466968e-03
0.000326897    	-1.4447118e-03
0.000327273    	-1.4427326e-03
0.000327648    	-1.4407578e-03
0.000328024    	-1.4387886e-03
0.0003284      	-1.4368219e-03
0.000328775    	-1.4348553e-03
0.000329151    	-1.4328887e-03
0.000329527    	-1.4309221e-03
0.000329902    	-1.4289584e-03
0.000330278    	-1.4269983e-03
0.000330654    	-1.4250414e-03
0.000331029    	-1.4230873e-03
0.000331405    	-1.4211316e-03
0.000331781    	-1.4191740e-03
0.000332156    	-1.4172177e-03
0.000332532    	-1.4152646e-03
0.000332908    	-1.4133159e-03
0.000333283    	-1.4113718e-03
0.000333659    	-1.4094284e-03
0.000334035    	-1.4074840e-03
0.00033441     	-1.4055475e-03
0.000334786    	-1.4036057e-03
0.000335162    	-1.4016629e-03
0.000335537    	-1.3997229e-03
0.000335913    	-1.3977921e-03
0.000336289    	-1.3958526e-03
0.000336664    	-1.3939088e-03
0.00033704     	-1.3919741e-03
0.000337415    	-1.3900424e-03
0.000337791    	-1.3881126e-03
0.000338167    	-1.3861847e-03
0.000338542    	-1.3842491e-03
0.000338918    	-1.3823173e-03
0.000339294    	-1.3803960e-03
0.000339669    	-1.3784711e-03
0.000340045    	-1.3765424e-03
0.000340421    	-1.3746190e-03
0.000340796    	-1.3727027e-03
0.000341172    	-1.3707812e-03
0.000341548    	-1.3688590e-03
0.000341923    	-1.3669371e-03
0.000342299    	-1.3650154e-03
0.000342675    	-1.3631014e-03
0.00034305     	-1.3611904e-03
0.000343426    	-1.3592777e-03
0.000343802    	-1.3573709e-03
0.000344177    	-1.3554606e-03
0.000344553    	-1.3535564e-03
0.000344929    	-1.3516512e-03
0.000345304    	-1.3497446e-03
0.00034568     	-1.3478409e-03
0.000346056    	-1.3459403e-03
0.000346431    	-1.3440398e-03
0.000346807    	-1.3421402e-03
0.000347183    	-1.3402396e-03
0.000347558    	-1.3383386e-03
0.000347934    	-1.3364374e-03
0.00034831     	-1.3345355e-03
0.000348685    	-1.3326325e-03
0.000349061    	-1.3307279e-03
0.000349437    	-1.3288253e-03
0.000349812    	-1.3269192e-03
0.000350188    	-1.3250107e-03
0.000350563    	-1.3231033e-03
0.000350939    	-1.3212011e-03
0.000351315    	-1.3192972e-03
0.00035169     	-1.3173933e-03
0.000352066    	-1.3154904e-03
0.000352442    	-1.3135938e-03
0.000352817    	-1.3116941e-03
0.000353193    	-1.3097978e-03
0.000353569    	-1.3079002e-03
0.000353944    	-1.3060013e-03
0.00035432     	-1.3041043e-03
0.000354696    	-1.3022035e-03
0.000355071    	-1.3003071e-03
0.000355447    	-1.2984132e-03
0.000355823    	-1.2965181e-03
0.000356198    	-1.2946255e-03
0.000356574    	-1.2927341e-03
0.00035695     	-1.2908451e-03
0.000357325    	-1.2889582e-03
0.000357701    	-1.2870719e-03
0.000358077    	-1.2851846e-03
0.000358452    	-1.2832952e-03
0.000358828    	-1.2814029e-03
0.000359204    	-1.2795066e-03
0.000359579    	-1.2776089e-03
0.000359955    	-1.2757111e-03
0.000360331    	-1.2738134e-03
0.000360706    	-1.2719159e-03
0.000361082    	-1.2700198e-03
0.000361458    	-1.2681240e-03
0.000361833    	-1.2662266e-03