# Region type : patch inlet
# Faces  :     292
# Area   :     1.5721138e-05
# Time         	sum(phi)
0              	0.0000000e+00
4.01965e-07    	-4.7265402e-04
7.27512e-07    	-5.0950405e-04
1.05663e-06    	-5.1732397e-04
1.38681e-06    	-5.1662538e-04
1.71576e-06    	-5.0193122e-04
2.04805e-06    	-4.8951942e-04
2.37928e-06    	-4.7715167e-04
2.71099e-06    	-4.7168459e-04
3.04407e-06    	-4.6953066e-04
3.37601e-06    	-4.6504493e-04
3.70902e-06    	-4.6496129e-04
4.04262e-06    	-4.6293106e-04
4.375e-06      	-4.6246563e-04
4.70918e-06    	-4.6429031e-04
5.0423e-06     	-4.6288369e-04
5.37532e-06    	-4.6679041e-04
5.70948e-06    	-4.7082084e-04
6.04158e-06    	-4.7480959e-04
6.37547e-06    	-4.8438793e-04
6.7081e-06     	-4.9133306e-04
7.04004e-06    	-5.0284094e-04
7.37319e-06    	-5.1535598e-04
7.70365e-06    	-5.2722108e-04
8.03561e-06    	-5.4416964e-04
8.36612e-06    	-5.5793736e-04
8.69569e-06    	-5.7517800e-04
9.02641e-06    	-5.9257085e-04
9.35429e-06    	-6.0757674e-04
9.68346e-06    	-6.2636826e-04
1.00115e-05    	-6.4131028e-04
1.03379e-05    	-6.5773706e-04
1.06658e-05    	-6.7402373e-04
1.0991e-05     	-6.8701943e-04
1.13169e-05    	-7.0293011e-04
1.16423e-05    	-7.1514475e-04
1.19661e-05    	-7.2773482e-04
1.22911e-05    	-7.4036980e-04
1.26142e-05    	-7.4983124e-04
1.29377e-05    	-7.6145300e-04
1.32608e-05    	-7.6982607e-04
1.3583e-05     	-7.7909283e-04
1.3906e-05     	-7.8750200e-04
1.42279e-05    	-7.9487467e-04
1.45503e-05    	-8.0282906e-04
1.48722e-05    	-8.0979460e-04
1.5194e-05     	-8.1700180e-04
1.55155e-05    	-8.2398552e-04
1.58368e-05    	-8.3096254e-04
1.61578e-05    	-8.3797421e-04
1.64787e-05    	-8.4503633e-04
1.67993e-05    	-8.5217120e-04
1.71197e-05    	-8.5939807e-04
1.74399e-05    	-8.6671639e-04
1.77599e-05    	-8.7410460e-04
1.80798e-05    	-8.8152912e-04
1.83994e-05    	-8.8895123e-04
1.87189e-05    	-8.9634745e-04
1.90381e-05    	-9.0367410e-04
1.93572e-05    	-9.1090262e-04
1.9676e-05     	-9.1802182e-04
1.99946e-05    	-9.2503254e-04
2.0313e-05     	-9.3194393e-04
2.06311e-05    	-9.3878397e-04
2.09489e-05    	-9.4554511e-04
2.12665e-05    	-9.5229109e-04
2.15838e-05    	-9.5904829e-04
2.19008e-05    	-9.6585761e-04
2.22176e-05    	-9.7276055e-04
2.2534e-05     	-9.7976817e-04
2.28501e-05    	-9.8690252e-04
2.31659e-05    	-9.9416250e-04
2.34813e-05    	-1.0015534e-03
2.37964e-05    	-1.0090749e-03
2.41112e-05    	-1.0167072e-03
2.44256e-05    	-1.0244187e-03
2.47398e-05    	-1.0321694e-03
2.50535e-05    	-1.0399240e-03
2.5367e-05     	-1.0476536e-03
2.56801e-05    	-1.0553142e-03
2.5993e-05     	-1.0628694e-03
2.63055e-05    	-1.0702996e-03
2.66177e-05    	-1.0775721e-03
2.69297e-05    	-1.0846597e-03
2.72414e-05    	-1.0915561e-03
2.75529e-05    	-1.0982433e-03
2.78641e-05    	-1.1047155e-03
2.81751e-05    	-1.1109712e-03
2.84858e-05    	-1.1170066e-03
2.87963e-05    	-1.1228345e-03
2.91067e-05    	-1.1284396e-03
2.94168e-05    	-1.1338310e-03
2.97267e-05    	-1.1390250e-03
3.00365e-05    	-1.1440584e-03
3.0346e-05     	-1.1489495e-03
3.06554e-05    	-1.1537203e-03
3.09646e-05    	-1.1584007e-03
3.12736e-05    	-1.1630093e-03
3.15825e-05    	-1.1675537e-03
3.18911e-05    	-1.1720396e-03
3.21996e-05    	-1.1764690e-03
3.2508e-05     	-1.1808382e-03
3.28161e-05    	-1.1851231e-03
3.31241e-05    	-1.1893217e-03
3.34319e-05    	-1.1933990e-03
3.37396e-05    	-1.1972994e-03
3.40471e-05    	-1.2009960e-03
3.43545e-05    	-1.2044414e-03
3.46617e-05    	-1.2075996e-03
3.49689e-05    	-1.2104219e-03
3.52759e-05    	-1.2128568e-03
3.55828e-05    	-1.2148530e-03
3.58896e-05    	-1.2163834e-03
3.61963e-05    	-1.2174359e-03
3.6503e-05     	-1.2179911e-03
3.68097e-05    	-1.2180400e-03
3.71163e-05    	-1.2176072e-03
3.7423e-05     	-1.2167196e-03
3.77297e-05    	-1.2154136e-03
3.80364e-05    	-1.2137377e-03
3.83432e-05    	-1.2117496e-03
3.865e-05      	-1.2095161e-03
3.89569e-05    	-1.2070948e-03
3.92639e-05    	-1.2045461e-03
3.9571e-05     	-1.2019264e-03
3.98783e-05    	-1.1992962e-03
4.01856e-05    	-1.1967160e-03
4.04931e-05    	-1.1942343e-03
4.08006e-05    	-1.1918934e-03
4.11083e-05    	-1.1897249e-03
4.1416e-05     	-1.1877546e-03
4.17238e-05    	-1.1860007e-03
4.20317e-05    	-1.1844778e-03
4.23396e-05    	-1.1831862e-03
4.26476e-05    	-1.1821200e-03
4.29556e-05    	-1.1812669e-03
4.32637e-05    	-1.1806159e-03
4.35718e-05    	-1.1801482e-03
4.38799e-05    	-1.1798396e-03
4.41879e-05    	-1.1796701e-03
4.4496e-05     	-1.1796243e-03
4.48041e-05    	-1.1796890e-03
4.51121e-05    	-1.1798543e-03
4.54201e-05    	-1.1801113e-03
4.57281e-05    	-1.1804543e-03
4.60361e-05    	-1.1808797e-03
4.6344e-05     	-1.1813866e-03
4.66519e-05    	-1.1819767e-03
4.69597e-05    	-1.1826537e-03
4.72674e-05    	-1.1834226e-03
4.75751e-05    	-1.1842878e-03
4.78828e-05    	-1.1852537e-03
4.81903e-05    	-1.1863240e-03
4.84978e-05    	-1.1875053e-03
4.88053e-05    	-1.1888027e-03
4.91126e-05    	-1.1902180e-03
4.94199e-05    	-1.1917530e-03
4.9727e-05     	-1.1934052e-03
5.00341e-05    	-1.1951670e-03
5.03411e-05    	-1.1970312e-03
5.0648e-05     	-1.1989892e-03
5.09548e-05    	-1.2010308e-03
5.12615e-05    	-1.2031433e-03
5.15681e-05    	-1.2053143e-03
5.18746e-05    	-1.2075320e-03
5.2181e-05     	-1.2097827e-03
5.24874e-05    	-1.2120515e-03
5.27936e-05    	-1.2143235e-03
5.30998e-05    	-1.2165841e-03
5.34059e-05    	-1.2188192e-03
5.37119e-05    	-1.2210163e-03
5.40178e-05    	-1.2231653e-03
5.43236e-05    	-1.2252589e-03
5.46294e-05    	-1.2272944e-03
5.4935e-05     	-1.2292588e-03
5.52407e-05    	-1.2311613e-03
5.55462e-05    	-1.2330012e-03
5.58517e-05    	-1.2347811e-03
5.61571e-05    	-1.2365064e-03
5.64625e-05    	-1.2381838e-03
5.67678e-05    	-1.2398209e-03
5.7073e-05     	-1.2414260e-03
5.73782e-05    	-1.2430088e-03
5.76833e-05    	-1.2445796e-03
5.79884e-05    	-1.2461489e-03
5.82934e-05    	-1.2477256e-03
5.85983e-05    	-1.2493174e-03
5.89032e-05    	-1.2509304e-03
5.9208e-05     	-1.2525699e-03
5.95127e-05    	-1.2542395e-03
5.98174e-05    	-1.2559410e-03
6.01219e-05    	-1.2576745e-03
6.04265e-05    	-1.2594379e-03
6.07309e-05    	-1.2612265e-03
6.10353e-05    	-1.2630347e-03
6.13396e-05    	-1.2648553e-03
6.16438e-05    	-1.2666794e-03
6.1948e-05     	-1.2684978e-03
6.22521e-05    	-1.2703008e-03
6.25561e-05    	-1.2720756e-03
6.28601e-05    	-1.2738095e-03
6.3164e-05     	-1.2754918e-03
6.34678e-05    	-1.2771134e-03
6.37716e-05    	-1.2786586e-03
6.40753e-05    	-1.2801178e-03
6.4379e-05     	-1.2814812e-03
6.46826e-05    	-1.2827343e-03
6.49862e-05    	-1.2838640e-03
6.52898e-05    	-1.2848608e-03
6.55933e-05    	-1.2857194e-03
6.58968e-05    	-1.2864309e-03
6.62003e-05    	-1.2869924e-03
6.65037e-05    	-1.2873968e-03
6.68072e-05    	-1.2876397e-03
6.71107e-05    	-1.2877186e-03
6.74142e-05    	-1.2876273e-03
6.77177e-05    	-1.2873665e-03
6.80212e-05    	-1.2869388e-03
6.83247e-05    	-1.2863484e-03
6.86283e-05    	-1.2856024e-03
6.89319e-05    	-1.2847103e-03
6.92356e-05    	-1.2836820e-03
6.95393e-05    	-1.2825250e-03
6.9843e-05     	-1.2812535e-03
7.01468e-05    	-1.2798803e-03
7.04506e-05    	-1.2784198e-03
7.07545e-05    	-1.2768893e-03
7.10585e-05    	-1.2753068e-03
7.13625e-05    	-1.2736913e-03
7.16666e-05    	-1.2720615e-03
7.19707e-05    	-1.2704371e-03
7.22749e-05    	-1.2688369e-03
7.25791e-05    	-1.2672814e-03
7.28834e-05    	-1.2657882e-03
7.31878e-05    	-1.2643725e-03
7.34921e-05    	-1.2630487e-03
7.37966e-05    	-1.2618327e-03
7.4101e-05     	-1.2607403e-03
7.44055e-05    	-1.2597831e-03
7.471e-05      	-1.2589679e-03
7.50145e-05    	-1.2583036e-03
7.5319e-05     	-1.2577927e-03
7.56236e-05    	-1.2574394e-03
7.59281e-05    	-1.2572536e-03
7.62326e-05    	-1.2572341e-03
7.65371e-05    	-1.2573736e-03
7.68416e-05    	-1.2576696e-03
7.71461e-05    	-1.2581183e-03
7.74506e-05    	-1.2587122e-03
7.7755e-05     	-1.2594422e-03
7.80594e-05    	-1.2602991e-03
7.83638e-05    	-1.2612715e-03
7.86681e-05    	-1.2623486e-03
7.89724e-05    	-1.2635170e-03
7.92766e-05    	-1.2647600e-03
7.95808e-05    	-1.2660616e-03
7.9885e-05     	-1.2674066e-03
8.01891e-05    	-1.2687821e-03
8.04932e-05    	-1.2701755e-03
8.07973e-05    	-1.2715734e-03
8.11012e-05    	-1.2729628e-03
8.14052e-05    	-1.2743323e-03
8.17091e-05    	-1.2756729e-03
8.2013e-05     	-1.2769754e-03
8.23168e-05    	-1.2782323e-03
8.26206e-05    	-1.2794379e-03
8.29243e-05    	-1.2805862e-03
8.32281e-05    	-1.2816729e-03
8.35317e-05    	-1.2826963e-03
8.38354e-05    	-1.2836566e-03
8.4139e-05     	-1.2845557e-03
8.44426e-05    	-1.2853963e-03
8.47462e-05    	-1.2861817e-03
8.50497e-05    	-1.2869143e-03
8.53532e-05    	-1.2875962e-03
8.56567e-05    	-1.2882316e-03
8.59601e-05    	-1.2888249e-03
8.62635e-05    	-1.2893808e-03
8.65669e-05    	-1.2899029e-03
8.68703e-05    	-1.2903946e-03
8.71737e-05    	-1.2908596e-03
8.7477e-05     	-1.2913012e-03
8.77803e-05    	-1.2917234e-03
8.80836e-05    	-1.2921296e-03
8.83869e-05    	-1.2925235e-03
8.86901e-05    	-1.2929085e-03
8.89933e-05    	-1.2932878e-03
8.92965e-05    	-1.2936648e-03
8.95997e-05    	-1.2940429e-03
8.99029e-05    	-1.2944259e-03
9.0206e-05     	-1.2948169e-03
9.05091e-05    	-1.2952191e-03
9.08122e-05    	-1.2956360e-03
9.11153e-05    	-1.2960717e-03
9.14183e-05    	-1.2965308e-03
9.17213e-05    	-1.2970167e-03
9.20243e-05    	-1.2975322e-03
9.23273e-05    	-1.2980791e-03
9.26303e-05    	-1.2986589e-03
9.29332e-05    	-1.2992733e-03
9.32361e-05    	-1.2999228e-03
9.3539e-05     	-1.3006077e-03
9.38418e-05    	-1.3013276e-03
9.41446e-05    	-1.3020819e-03
9.44474e-05    	-1.3028687e-03
9.47502e-05    	-1.3036856e-03
9.5053e-05     	-1.3045290e-03
9.53557e-05    	-1.3053947e-03
9.56584e-05    	-1.3062779e-03
9.5961e-05     	-1.3071728e-03
9.62637e-05    	-1.3080732e-03
9.65663e-05    	-1.3089721e-03
9.68688e-05    	-1.3098622e-03
9.71714e-05    	-1.3107351e-03
9.74739e-05    	-1.3115822e-03
9.77764e-05    	-1.3123949e-03
9.80789e-05    	-1.3131646e-03
9.83814e-05    	-1.3138849e-03
9.86839e-05    	-1.3145482e-03
9.89863e-05    	-1.3151477e-03
9.92887e-05    	-1.3156773e-03
9.95912e-05    	-1.3161329e-03
9.98936e-05    	-1.3165101e-03
0.000100196    	-1.3168062e-03
0.000100498    	-1.3170179e-03
0.000100801    	-1.3171441e-03
0.000101103    	-1.3171850e-03
0.000101406    	-1.3171426e-03
0.000101708    	-1.3170204e-03
0.000102011    	-1.3168213e-03
0.000102313    	-1.3165493e-03
0.000102616    	-1.3162092e-03
0.000102918    	-1.3158076e-03
0.000103221    	-1.3153524e-03
0.000103523    	-1.3148514e-03
0.000103826    	-1.3143126e-03
0.000104128    	-1.3137448e-03
0.000104431    	-1.3131577e-03
0.000104734    	-1.3125609e-03
0.000105036    	-1.3119640e-03
0.000105339    	-1.3113760e-03
0.000105642    	-1.3108054e-03
0.000105944    	-1.3102604e-03
0.000106247    	-1.3097489e-03
0.00010655     	-1.3092777e-03
0.000106852    	-1.3088529e-03
0.000107155    	-1.3084792e-03
0.000107458    	-1.3081601e-03
0.000107761    	-1.3078989e-03
0.000108064    	-1.3076981e-03
0.000108366    	-1.3075599e-03
0.000108669    	-1.3074853e-03
0.000108972    	-1.3074742e-03
0.000109275    	-1.3075266e-03
0.000109577    	-1.3076407e-03
0.00010988     	-1.3078139e-03
0.000110183    	-1.3080420e-03
0.000110486    	-1.3083195e-03
0.000110788    	-1.3086432e-03
0.000111091    	-1.3090070e-03
0.000111394    	-1.3094062e-03
0.000111696    	-1.3098345e-03
0.000111999    	-1.3102854e-03
0.000112301    	-1.3107568e-03
0.000112604    	-1.3112456e-03
0.000112907    	-1.3117472e-03
0.000113209    	-1.3122548e-03
0.000113512    	-1.3127621e-03
0.000113814    	-1.3132695e-03
0.000114117    	-1.3137772e-03
0.000114419    	-1.3142835e-03
0.000114722    	-1.3147857e-03
0.000115024    	-1.3152794e-03
0.000115326    	-1.3157646e-03
0.000115629    	-1.3162463e-03
0.000115931    	-1.3167263e-03
0.000116234    	-1.3172048e-03
0.000116536    	-1.3176805e-03
0.000116838    	-1.3181528e-03
0.000117141    	-1.3186257e-03
0.000117443    	-1.3191025e-03
0.000117745    	-1.3195849e-03
0.000118047    	-1.3200732e-03
0.00011835     	-1.3205674e-03
0.000118652    	-1.3210691e-03
0.000118954    	-1.3215809e-03
0.000119256    	-1.3221045e-03
0.000119558    	-1.3226409e-03
0.00011986     	-1.3231902e-03
0.000120162    	-1.3237527e-03
0.000120465    	-1.3243289e-03
0.000120767    	-1.3249193e-03
0.000121069    	-1.3255238e-03
0.000121371    	-1.3261419e-03
0.000121673    	-1.3267726e-03
0.000121975    	-1.3274151e-03
0.000122277    	-1.3280683e-03
0.000122579    	-1.3287309e-03
0.000122881    	-1.3294014e-03
0.000123182    	-1.3300778e-03
0.000123484    	-1.3307581e-03
0.000123786    	-1.3314400e-03
0.000124088    	-1.3321215e-03
0.00012439     	-1.3328000e-03
0.000124692    	-1.3334732e-03
0.000124993    	-1.3341388e-03
0.000125295    	-1.3347945e-03
0.000125597    	-1.3354379e-03
0.000125899    	-1.3360669e-03
0.0001262      	-1.3366791e-03
0.000126502    	-1.3372723e-03
0.000126804    	-1.3378446e-03
0.000127105    	-1.3383946e-03
0.000127407    	-1.3389208e-03
0.000127708    	-1.3394218e-03
0.00012801     	-1.3398965e-03
0.000128312    	-1.3403435e-03
0.000128613    	-1.3407618e-03
0.000128915    	-1.3411505e-03
0.000129216    	-1.3415095e-03
0.000129518    	-1.3418384e-03
0.000129819    	-1.3421372e-03
0.000130121    	-1.3424058e-03
0.000130422    	-1.3426429e-03
0.000130724    	-1.3428485e-03
0.000131025    	-1.3430234e-03
0.000131327    	-1.3431679e-03
0.000131628    	-1.3432830e-03
0.00013193     	-1.3433693e-03
0.000132231    	-1.3434280e-03
0.000132533    	-1.3434605e-03
0.000132834    	-1.3434681e-03
0.000133136    	-1.3434525e-03
0.000133437    	-1.3434156e-03
0.000133739    	-1.3433591e-03
0.00013404     	-1.3432852e-03
0.000134342    	-1.3431961e-03
0.000134643    	-1.3430940e-03
0.000134945    	-1.3429810e-03
0.000135246    	-1.3428598e-03
0.000135548    	-1.3427327e-03
0.00013585     	-1.3426023e-03
0.000136151    	-1.3424710e-03
0.000136453    	-1.3423411e-03
0.000136754    	-1.3422151e-03
0.000137056    	-1.3420952e-03
0.000137357    	-1.3419836e-03
0.000137659    	-1.3418825e-03
0.00013796     	-1.3417936e-03
0.000138262    	-1.3417186e-03
0.000138564    	-1.3416593e-03
0.000138865    	-1.3416171e-03
0.000139167    	-1.3415936e-03
0.000139468    	-1.3415899e-03
0.00013977     	-1.3416071e-03
0.000140071    	-1.3416457e-03
0.000140373    	-1.3417066e-03
0.000140675    	-1.3417902e-03
0.000140976    	-1.3418970e-03
0.000141278    	-1.3420270e-03
0.000141579    	-1.3421799e-03
0.000141881    	-1.3423548e-03
0.000142182    	-1.3425509e-03
0.000142484    	-1.3427678e-03
0.000142785    	-1.3430052e-03
0.000143087    	-1.3432620e-03
0.000143389    	-1.3435372e-03
0.00014369     	-1.3438300e-03
0.000143991    	-1.3441395e-03
0.000144293    	-1.3444639e-03
0.000144594    	-1.3448021e-03
0.000144896    	-1.3451524e-03
0.000145197    	-1.3455141e-03
0.000145499    	-1.3458859e-03
0.0001458      	-1.3462666e-03
0.000146102    	-1.3466554e-03
0.000146403    	-1.3470510e-03
0.000146704    	-1.3474524e-03
0.000147006    	-1.3478586e-03
0.000147307    	-1.3482691e-03
0.000147608    	-1.3486826e-03
0.000147909    	-1.3490991e-03
0.000148211    	-1.3495175e-03
0.000148512    	-1.3499376e-03
0.000148813    	-1.3503589e-03
0.000149115    	-1.3507812e-03
0.000149416    	-1.3512043e-03
0.000149717    	-1.3516281e-03
0.000150018    	-1.3520525e-03
0.000150319    	-1.3524774e-03
0.00015062     	-1.3529029e-03
0.000150922    	-1.3533291e-03
0.000151223    	-1.3537561e-03
0.000151524    	-1.3541842e-03
0.000151825    	-1.3546138e-03
0.000152126    	-1.3550451e-03
0.000152427    	-1.3554788e-03
0.000152728    	-1.3559149e-03
0.000153029    	-1.3563535e-03
0.00015333     	-1.3567952e-03
0.000153631    	-1.3572406e-03
0.000153932    	-1.3576899e-03
0.000154233    	-1.3581433e-03
0.000154534    	-1.3586012e-03
0.000154835    	-1.3590638e-03
0.000155136    	-1.3595314e-03
0.000155437    	-1.3600040e-03
0.000155738    	-1.3604814e-03
0.000156039    	-1.3609635e-03
0.000156339    	-1.3614502e-03
0.00015664     	-1.3619415e-03
0.000156941    	-1.3624366e-03
0.000157242    	-1.3629350e-03
0.000157543    	-1.3634362e-03
0.000157844    	-1.3639395e-03
0.000158144    	-1.3644445e-03
0.000158445    	-1.3649500e-03
0.000158746    	-1.3654548e-03
0.000159046    	-1.3659582e-03
0.000159347    	-1.3664590e-03
0.000159648    	-1.3669560e-03
0.000159949    	-1.3674476e-03
0.000160249    	-1.3679324e-03
0.00016055     	-1.3684089e-03
0.000160851    	-1.3688757e-03
0.000161151    	-1.3693312e-03
0.000161452    	-1.3697736e-03
0.000161752    	-1.3702012e-03
0.000162053    	-1.3706124e-03
0.000162354    	-1.3710061e-03
0.000162654    	-1.3713805e-03
0.000162955    	-1.3717338e-03
0.000163255    	-1.3720644e-03
0.000163556    	-1.3723717e-03
0.000163856    	-1.3726547e-03
0.000164157    	-1.3729124e-03
0.000164457    	-1.3731432e-03
0.000164758    	-1.3733460e-03
0.000165058    	-1.3735199e-03
0.000165359    	-1.3736650e-03
0.000165659    	-1.3737810e-03
0.00016596     	-1.3738679e-03
0.00016626     	-1.3739256e-03
0.000166561    	-1.3739544e-03
0.000166861    	-1.3739547e-03
0.000167162    	-1.3739267e-03
0.000167462    	-1.3738709e-03
0.000167763    	-1.3737882e-03
0.000168063    	-1.3736798e-03
0.000168364    	-1.3735463e-03
0.000168664    	-1.3733885e-03
0.000168965    	-1.3732071e-03
0.000169265    	-1.3730030e-03
0.000169566    	-1.3727772e-03
0.000169866    	-1.3725304e-03
0.000170167    	-1.3722637e-03
0.000170467    	-1.3719776e-03
0.000170768    	-1.3716731e-03
0.000171069    	-1.3713507e-03
0.000171369    	-1.3710107e-03
0.00017167     	-1.3706536e-03
0.00017197     	-1.3702794e-03
0.000172271    	-1.3698882e-03
0.000172571    	-1.3694800e-03
0.000172872    	-1.3690546e-03
0.000173173    	-1.3686116e-03
0.000173473    	-1.3681502e-03
0.000173774    	-1.3676695e-03
0.000174074    	-1.3671684e-03
0.000174375    	-1.3666460e-03
0.000174676    	-1.3661010e-03
0.000174976    	-1.3655318e-03
0.000175277    	-1.3649364e-03
0.000175578    	-1.3643124e-03
0.000175878    	-1.3636577e-03
0.000176179    	-1.3629700e-03
0.00017648     	-1.3622468e-03
0.000176781    	-1.3614860e-03
0.000177081    	-1.3606850e-03
0.000177382    	-1.3598405e-03
0.000177683    	-1.3589486e-03
0.000177984    	-1.3580063e-03
0.000178285    	-1.3570109e-03
0.000178586    	-1.3559600e-03
0.000178887    	-1.3548499e-03
0.000179188    	-1.3536760e-03
0.000179489    	-1.3524339e-03
0.00017979     	-1.3511209e-03
0.000180091    	-1.3497316e-03
0.000180392    	-1.3482617e-03
0.000180693    	-1.3467049e-03
0.000180994    	-1.3450557e-03
0.000181295    	-1.3433092e-03
0.000181597    	-1.3414651e-03
0.000181898    	-1.3395177e-03
0.000182199    	-1.3374563e-03
0.000182501    	-1.3352747e-03
0.000182802    	-1.3329682e-03
0.000183104    	-1.3305357e-03
0.000183405    	-1.3279701e-03
0.000183707    	-1.3252665e-03
0.000184009    	-1.3224177e-03
0.000184311    	-1.3194183e-03
0.000184613    	-1.3162608e-03
0.000184915    	-1.3129558e-03
0.000185217    	-1.3094858e-03
0.000185519    	-1.3058159e-03
0.000185822    	-1.3019560e-03
0.000186124    	-1.2979074e-03
0.000186427    	-1.2936650e-03
0.000186729    	-1.2892170e-03
0.000187032    	-1.2845582e-03
0.000187335    	-1.2796761e-03
0.000187638    	-1.2745619e-03
0.000187941    	-1.2692099e-03
0.000188245    	-1.2636181e-03
0.000188548    	-1.2577758e-03
0.000188852    	-1.2516778e-03
0.000189156    	-1.2453208e-03
0.00018946     	-1.2386977e-03
0.000189764    	-1.2317962e-03
0.000190069    	-1.2246018e-03
0.000190373    	-1.2171086e-03
0.000190678    	-1.2093138e-03
0.000190983    	-1.2012198e-03
0.000191289    	-1.1928197e-03
0.000191594    	-1.1841039e-03
0.0001919      	-1.1750690e-03
0.000192206    	-1.1657146e-03
0.000192513    	-1.1560422e-03
0.00019282     	-1.1460454e-03
0.000193127    	-1.1357117e-03
0.000193434    	-1.1250419e-03
0.000193742    	-1.1140415e-03
0.00019405     	-1.1027138e-03
0.000194358    	-1.0910610e-03
0.000194667    	-1.0790857e-03
0.000194977    	-1.0667910e-03
0.000195286    	-1.0541862e-03
0.000195596    	-1.0412775e-03
0.000195907    	-1.0280765e-03
0.000196218    	-1.0145924e-03
0.00019653     	-1.0008408e-03
0.000196842    	-9.8682368e-04
0.000197154    	-9.7254651e-04
0.000197467    	-9.5801660e-04
0.000197781    	-9.4325072e-04
0.000198095    	-9.2826250e-04
0.00019841     	-9.1306157e-04
0.000198726    	-8.9765246e-04
0.000199042    	-8.8204821e-04
0.000199358    	-8.6626115e-04
0.000199676    	-8.5029517e-04
0.000199994    	-8.3417354e-04
0.000200313    	-8.1790169e-04
0.000200632    	-8.0150217e-04
0.000200952    	-7.8499058e-04
0.000201273    	-7.6837620e-04
0.000201594    	-7.5167687e-04
0.000201917    	-7.3490821e-04
0.00020224     	-7.1808667e-04
0.000202563    	-7.0122062e-04
0.000202888    	-6.8433575e-04
0.000203213    	-6.6743518e-04
0.000203539    	-6.5055648e-04
0.000203866    	-6.3372343e-04
0.000204193    	-6.1692569e-04
0.000204521    	-6.0017609e-04
0.00020485     	-5.8343699e-04
0.00020518     	-5.6675691e-04
0.00020551     	-5.5014045e-04
0.000205841    	-5.3360305e-04
0.000206173    	-5.1715720e-04
0.000206505    	-5.0078710e-04
0.000206839    	-4.8451510e-04
0.000207173    	-4.6835900e-04
0.000207507    	-4.5236734e-04
0.000207842    	-4.3652215e-04
0.000208178    	-4.2079827e-04
0.000208515    	-4.0521082e-04
0.000208852    	-3.8980787e-04
0.00020919     	-3.7456152e-04
0.000209529    	-3.5953995e-04
0.000209868    	-3.4478139e-04
0.000210208    	-3.2993760e-04
0.000210548    	-3.1560018e-04
0.000210889    	-3.0134320e-04
0.000211231    	-2.8729112e-04
0.000211573    	-2.7343545e-04
0.000211916    	-2.6035937e-04
0.000212258    	-2.4659285e-04
0.000212602    	-2.3401272e-04
0.000212946    	-2.2144775e-04
0.00021329     	-2.0819003e-04
0.000213635    	-1.9718101e-04
0.000213981    	-1.8485026e-04
0.000214326    	-1.7271412e-04
0.000214673    	-1.6341348e-04
0.000215019    	-1.5033181e-04
0.000215365    	-1.4140070e-04
0.000215714    	-1.3077816e-04
0.00021606     	-1.1975091e-04
0.000216409    	-1.1220728e-04
0.000216757    	-1.0053798e-04
0.000217105    	-9.2691064e-05
0.000217456    	-8.4070266e-05
0.000217804    	-7.3716416e-05
0.000218155    	-6.7384516e-05
0.000218505    	-5.7761234e-05
0.000218855    	-5.0132069e-05
0.000219207    	-4.3690531e-05
0.000219557    	-3.3903935e-05
0.000219909    	-2.9220675e-05
0.00022026     	-2.0385479e-05
0.000220611    	-1.3942468e-05
0.000220964    	-8.4620537e-06
0.000221315    	1.8942651e-07
0.000221666    	4.0092375e-06
0.000222018    	1.1799426e-05
0.000222368    	1.7163310e-05
0.000222721    	2.1796970e-05
0.000223071    	2.9471128e-05
0.000223423    	3.1803932e-05
0.000223774    	3.9919332e-05
0.000224126    	4.2542618e-05
0.000224478    	4.8575498e-05
0.000224828    	5.3387657e-05
0.000225181    	5.6021185e-05
0.000225531    	6.3113493e-05
0.000225883    	6.3772517e-05
0.000226233    	7.0787960e-05
0.000226584    	7.2334444e-05
0.000226935    	7.7120236e-05
0.000227286    	8.0948373e-05
0.000227637    	8.2845372e-05
0.000227987    	8.8824896e-05
0.000228338    	8.8509745e-05
0.000228688    	9.5149223e-05
0.000229038    	9.5149069e-05
0.000229388    	1.0000095e-04
0.000229738    	1.0241561e-04
0.000230089    	1.0399800e-04
0.000230439    	1.0901152e-04
0.000230789    	1.0814565e-04
0.000231138    	1.1455786e-04
0.000231488    	1.1315346e-04
0.000231837    	1.1881909e-04
0.000232187    	1.1915770e-04
0.000232536    	1.2206969e-04
0.000232886    	1.2508534e-04
0.000233235    	1.2502286e-04
0.000233585    	1.3042077e-04
0.000233934    	1.2841121e-04
0.000234283    	1.3477851e-04
0.000234632    	1.3274156e-04
0.00023498     	1.3789508e-04
0.000235329    	1.3804111e-04
0.000235678    	1.4036947e-04
0.000236027    	1.4327478e-04
0.000236375    	1.4258313e-04
0.000236724    	1.4798283e-04
0.000237072    	1.4524068e-04
0.00023742     	1.5179611e-04
0.000237767    	1.4863723e-04
0.000238114    	1.5448346e-04
0.000238462    	1.5287266e-04
0.000238809    	1.5648526e-04
0.000239157    	1.5746688e-04
0.000239504    	1.5795330e-04
0.000239852    	1.6176718e-04
0.000240198    	1.5937321e-04
0.000240545    	1.6557798e-04
0.000240892    	1.6138188e-04
0.000241238    	1.6840798e-04
0.000241584    	1.6418893e-04
0.00024193     	1.7032801e-04
0.000242276    	1.6789607e-04
0.000242622    	1.7177187e-04
0.000242968    	1.7186121e-04
0.000243313    	1.7275105e-04
0.000243659    	1.7572219e-04
0.000244004    	1.7384870e-04
0.00024435     	1.7930541e-04
0.000244694    	1.7517877e-04
0.000245039    	1.8237260e-04
0.000245384    	1.7711158e-04
0.000245728    	1.8487294e-04
0.000246073    	1.7980887e-04
0.000246416    	1.8667897e-04
0.000246761    	1.8346403e-04
0.000247105    	1.8829820e-04
0.000247449    	1.8740343e-04
0.000247793    	1.8959180e-04
0.000248138    	1.9150495e-04
0.000248482    	1.9080958e-04
0.000248827    	1.9559552e-04
0.000249171    	1.9215070e-04
0.000249515    	1.9960488e-04
0.000249859    	1.9404301e-04
0.000250202    	2.0297777e-04
0.000250545    	1.9691131e-04
0.000250888    	2.0560175e-04
0.000251232    	2.0067949e-04
0.000251574    	2.0782727e-04
0.000251918    	2.0488108e-04
0.00025226     	2.1002756e-04
0.000252603    	2.0927845e-04
0.000252945    	2.1201627e-04
0.000253289    	2.1372516e-04
0.00025363     	2.1366764e-04
0.000253974    	2.1806479e-04
0.000254316    	2.1559947e-04
0.000254659    	2.2210805e-04
0.000255       	2.1765646e-04
0.000255342    	2.2582009e-04
0.000255684    	2.1979599e-04
0.000256026    	2.2912196e-04
0.000256367    	2.2217587e-04
0.000256708    	2.3186168e-04
0.000257049    	2.2483936e-04
0.00025739     	2.3391308e-04
0.000257732    	2.2784748e-04
0.000258072    	2.3560286e-04
0.000258414    	2.3091654e-04
0.000258754    	2.3683037e-04
0.000259095    	2.3413019e-04
0.000259435    	2.3779485e-04
0.000259777    	2.3678124e-04
0.000260116    	2.3847642e-04
0.000260458    	2.3926660e-04
0.000260798    	2.3850524e-04
0.00026114     	2.4130457e-04
0.000261479    	2.3869048e-04
0.000261821    	2.4311011e-04
0.00026216     	2.3839896e-04
0.000262501    	2.4466484e-04
0.00026284     	2.3813930e-04
0.000263181    	2.4576010e-04
0.000263521    	2.3773567e-04
0.000263861    	2.4638312e-04
0.0002642      	2.3743448e-04
0.00026454     	2.4661149e-04
0.00026488     	2.3730034e-04
0.00026522     	2.4624875e-04
0.000265559    	2.3718963e-04
0.000265899    	2.4553756e-04
0.000266239    	2.3742960e-04
0.000266578    	2.4452306e-04
0.000266918    	2.3777698e-04
0.000267257    	2.4328016e-04
0.000267597    	2.3841993e-04
0.000267936    	2.4217396e-04
0.000268276    	2.3863954e-04
0.000268615    	2.4074882e-04
0.000268956    	2.3912224e-04
0.000269295    	2.3916946e-04
0.000269636    	2.3946755e-04
0.000269974    	2.3739655e-04
0.000270316    	2.4005475e-04
0.000270654    	2.3587241e-04
0.000270995    	2.4054037e-04
0.000271334    	2.3442209e-04
0.000271675    	2.4118584e-04
0.000272014    	2.3318960e-04
0.000272354    	2.4141689e-04
0.000272694    	2.3247405e-04
0.000273033    	2.4145546e-04
0.000273373    	2.3211411e-04
0.000273712    	2.4120681e-04
0.000274052    	2.3246961e-04
0.000274392    	2.4127152e-04
0.000274731    	2.3275613e-04
0.00027507     	2.4124928e-04
0.000275411    	2.3368159e-04
0.000275749    	2.4133749e-04
0.000276089    	2.3487177e-04
0.000276428    	2.4130861e-04
0.000276767    	2.3668387e-04
0.000277106    	2.4186770e-04
0.000277445    	2.3854076e-04
0.000277784    	2.4207615e-04
0.000278124    	2.4050620e-04
0.000278463    	2.4274263e-04
0.000278804    	2.4264345e-04
0.000279142    	2.4320303e-04
0.000279482    	2.4495260e-04
0.00027982     	2.4374775e-04
0.000280161    	2.4746880e-04
0.000280499    	2.4454282e-04
0.00028084     	2.4997361e-04
0.000281177    	2.4557814e-04
0.000281518    	2.5241972e-04
0.000281855    	2.4660657e-04
0.000282196    	2.5486771e-04
0.000282533    	2.4795404e-04
0.000282872    	2.5697774e-04
0.00028321     	2.4948326e-04
0.000283548    	2.5901002e-04
0.000283886    	2.5100853e-04
0.000284225    	2.6115609e-04
0.000284562    	2.5216485e-04
0.0002849      	2.6307286e-04
0.000285238    	2.5359122e-04
0.000285575    	2.6470109e-04
0.000285913    	2.5496554e-04
0.00028625     	2.6616675e-04
0.000286588    	2.5651156e-04
0.000286925    	2.6726127e-04
0.000287262    	2.5779087e-04
0.0002876      	2.6819375e-04
0.000287938    	2.5896368e-04
0.000288275    	2.6891111e-04
0.000288613    	2.6004928e-04
0.000288949    	2.6944377e-04
0.000289288    	2.6121002e-04
0.000289625    	2.6951206e-04
0.000289963    	2.6198063e-04
0.0002903      	2.6947746e-04
0.000290638    	2.6240854e-04
0.000290975    	2.6898712e-04
0.000291313    	2.6292191e-04
0.00029165     	2.6859452e-04
0.000291988    	2.6291414e-04
0.000292325    	2.6812250e-04
0.000292662    	2.6308522e-04
0.000292999    	2.6706553e-04
0.000293336    	2.6308031e-04
0.000293673    	2.6587048e-04
0.000294011    	2.6277790e-04
0.000294348    	2.6469352e-04
0.000294686    	2.6247453e-04
0.000295022    	2.6342323e-04
0.000295361    	2.6181452e-04
0.000295697    	2.6204336e-04
0.000296037    	2.6134524e-04
0.000296372    	2.6055815e-04
0.000296711    	2.6099004e-04
0.000297046    	2.5882201e-04
0.000297385    	2.6061190e-04
0.00029772     	2.5746820e-04
0.00029806     	2.6027457e-04
0.000298395    	2.5617418e-04
0.000298734    	2.5999636e-04
0.000299069    	2.5521180e-04
0.000299408    	2.5959634e-04
0.000299744    	2.5431325e-04
0.000300083    	2.5957058e-04
0.000300419    	2.5337753e-04
0.000300758    	2.6002911e-04
0.000301093    	2.5252715e-04
0.000301432    	2.6031331e-04
0.000301769    	2.5217083e-04
0.000302107    	2.6084958e-04
0.000302444    	2.5205012e-04
0.000302782    	2.6141559e-04
0.000303118    	2.5218835e-04
0.000303455    	2.6203064e-04
0.000303792    	2.5264508e-04
0.000304129    	2.6297688e-04
0.000304465    	2.5308365e-04
0.000304802    	2.6415716e-04
0.000305139    	2.5373944e-04
0.000305475    	2.6513493e-04
0.000305812    	2.5494872e-04
0.000306148    	2.6610205e-04
0.000306485    	2.5639774e-04
0.000306821    	2.6738926e-04
0.000307158    	2.5771980e-04
0.000307494    	2.6901601e-04
0.00030783     	2.5903565e-04
0.000308167    	2.7083572e-04
0.000308502    	2.6057687e-04